# vtk DataFile Version 4.2
vtk output
ASCII
DATASET POLYDATA
POINTS 6535 float
2520.65 -2964.14 5800 2522.86 -2966.99 5800 2528.72 -2964.14 5800 
2512.23 -2951.14 5800 2551.86 -2952.88 5800 2555.44 -2951.14 5800 
2507.53 -2938.14 5800 2580.86 -2938.77 5800 2582.16 -2938.14 5800 
2502.73 -2925.14 5800 2608.89 -2925.14 5800 2497.93 -2912.14 5800 
2609.86 -2924.66 5800 2635.61 -2912.13 5800 2493.14 -2899.14 5800 
2493.86 -2901.1 5800 2638.87 -2910.55 5800 2662.33 -2899.13 5800 
2488.34 -2886.14 5800 2667.87 -2896.44 5800 2689.06 -2886.13 5800 
2483.55 -2873.14 5800 2696.87 -2882.33 5800 2705.97 -2873.13 5800 
2478.75 -2860.13 5800 2713.52 -2860.13 5800 2473.96 -2847.13 5800 
2719.42 -2847.13 5800 2469.16 -2834.13 5800 2725.32 -2834.12 5800 
2464.37 -2821.13 5800 2464.87 -2822.49 5800 2725.88 -2832.9 5800 
2731.22 -2821.12 5800 2459.57 -2808.13 5800 2737.12 -2808.12 5800 
2454.78 -2795.13 5800 2743.02 -2795.12 5800 2449.98 -2782.13 5800 
2748.92 -2782.12 5800 2445.18 -2769.13 5800 2754.82 -2769.12 5800 
2440.39 -2756.13 5800 2754.88 -2768.98 5800 2760.72 -2756.12 5800 
2423.33 -2743.13 5800 2435.87 -2752.11 5800 2766.62 -2743.12 5800 
2405.67 -2730.13 5800 2406.87 -2731.01 5800 2772.52 -2730.11 5800 
2388.01 -2717.13 5800 2778.42 -2717.11 5800 2370.35 -2704.13 5800 
2377.87 -2709.66 5800 2783.89 -2705.07 5800 2784.32 -2704.11 5800 
2352.69 -2691.13 5800 2790.22 -2691.11 5800 2335.03 -2678.13 5800 
2348.87 -2688.31 5800 2796.12 -2678.11 5800 2317.37 -2665.13 5800 
2319.87 -2666.97 5800 2802.02 -2665.11 5800 2299.71 -2652.12 5800 
2807.93 -2652.11 5800 2282.05 -2639.12 5800 2290.88 -2645.62 5800 
2812.89 -2641.16 5800 2813.83 -2639.11 5800 2264.4 -2626.12 5800 
2819.73 -2626.1 5800 2246.48 -2613.12 5800 2261.88 -2624.27 5800 
2829.57 -2613.1 5800 2226.84 -2600.12 5800 2232.88 -2603.8 5800 
2841.9 -2600.15 5800 2841.94 -2600.1 5800 2205.51 -2587.12 5800 
2855.98 -2587.1 5800 2184.17 -2574.12 5800 2203.88 -2586.13 5800 
2870.9 -2574.21 5800 2871.02 -2574.1 5800 2162.84 -2561.12 5800 
2174.88 -2568.46 5800 2884.69 -2561.1 5800 2141.5 -2548.12 5800 
2145.88 -2550.79 5800 2898.98 -2548.1 5800 2120.16 -2535.12 5800 
2899.9 -2547.27 5800 2912.6 -2535.09 5800 2098.83 -2522.12 5800 
2116.88 -2533.12 5800 2926.15 -2522.09 5800 2077.49 -2509.12 5800 
2087.88 -2515.45 5800 2928.91 -2519.45 5800 2939.7 -2509.09 5800 
2057.51 -2496.12 5800 2058.88 -2497.78 5800 2953.25 -2496.09 5800 
2050.17 -2483.12 5800 2957.91 -2491.62 5800 2966.8 -2483.09 5800 
2046.06 -2470.12 5800 2980.35 -2470.09 5800 2044.95 -2457.12 5800 
2986.91 -2463.79 5800 2993.91 -2457.09 5800 2045.26 -2444.12 5800 
3007.46 -2444.08 5800 2045.57 -2431.12 5800 3015.92 -2435.97 5800 
3021.01 -2431.08 5800 2045.89 -2418.12 5800 3034.56 -2418.08 5800 
2046.2 -2405.11 5800 3044.92 -2408.14 5800 3048.11 -2405.08 5800 
2046.52 -2392.11 5800 3061.66 -2392.08 5800 2046.83 -2379.11 5800 
3073.92 -2380.31 5800 3075.21 -2379.08 5800 2047.15 -2366.11 5800 
3088.76 -2366.08 5800 2047.46 -2353.11 5800 3102.32 -2353.07 5800 
2047.77 -2340.11 5800 3102.93 -2352.49 5800 3115.87 -2340.07 5800 
2048.09 -2327.11 5800 3129.42 -2327.07 5800 2048.4 -2314.11 5800 
3131.93 -2324.66 5800 3142.97 -2314.07 5800 2048.72 -2301.11 5800 
3156.52 -2301.07 5800 2049.03 -2288.11 5800 3160.93 -2296.84 5800 
3166.96 -2288.07 5800 2049.34 -2275.1 5800 3171.72 -2275.07 5800 
2049.66 -2262.1 5800 3173.56 -2262.06 5800 2049.97 -2249.1 5800 
3175.4 -2249.06 5800 2050.29 -2236.1 5800 3177.24 -2236.06 5800 
2050.6 -2223.1 5800 3179.08 -2223.06 5800 2050.91 -2210.1 5800 
3180.92 -2210.06 5800 2051.23 -2197.1 5800 3182.76 -2197.06 5800 
2051.54 -2184.1 5800 3184.6 -2184.06 5800 2051.86 -2171.1 5800 
3186.44 -2171.06 5800 2052.17 -2158.1 5800 3188.27 -2158.06 5800 
2052.48 -2145.09 5800 3189.95 -2146.25 5800 3190.11 -2145.05 5800 
2052.8 -2132.09 5800 3191.95 -2132.05 5800 2053.11 -2119.09 5800 
3193.79 -2119.05 5800 2053.43 -2106.09 5800 3195.63 -2106.05 5800 
2053.77 -2093.09 5800 3197.47 -2093.05 5800 2054.11 -2080.09 5800 
3199.31 -2080.05 5800 2054.44 -2067.09 5800 3201.15 -2067.05 5800 
2054.38 -2054.09 5800 3202.99 -2054.05 5800 2051.64 -2041.09 5800 
3204.83 -2041.05 5800 2048.93 -2028.09 5800 3206.67 -2028.05 5800 
2046.15 -2015.08 5800 3208.5 -2015.04 5800 2043.31 -2002.08 5800 
3210.34 -2002.04 5800 2040.39 -1989.08 5800 3212.18 -1989.04 5800 
2037.41 -1976.08 5800 3213.92 -1976.04 5800 2034.34 -1963.08 5800 
3215.55 -1963.04 5800 2031.2 -1950.08 5800 3216.85 -1950.04 5800 
2028.16 -1937.08 5800 2029.92 -1944.88 5800 3218.16 -1937.04 5800 
2025.44 -1924.08 5800 3218.96 -1928.99 5800 3219.46 -1924.04 5800 
2022.75 -1911.08 5800 3220.76 -1911.04 5800 2019.99 -1898.08 5800 
3222.06 -1898.03 5800 2017.17 -1885.08 5800 3223.37 -1885.03 5800 
2014.27 -1872.07 5800 3224.67 -1872.03 5800 2011.3 -1859.07 5800 
3225.97 -1859.03 5800 2008.26 -1846.07 5800 3227.27 -1846.03 5800 
2005.14 -1833.07 5800 3228.57 -1833.03 5800 2001.93 -1820.07 5800 
3229.88 -1820.03 5800 1999.27 -1807.07 5800 2000.93 -1815.46 5800 
3231.18 -1807.03 5800 1996.6 -1794.07 5800 3232.48 -1794.03 5800 
1993.86 -1781.07 5800 3233.78 -1781.03 5800 1991.05 -1768.07 5800 
3235.09 -1768.02 5800 1988.18 -1755.07 5800 3236.39 -1755.02 5800 
1985.23 -1742.07 5800 3237.69 -1742.02 5800 1982.21 -1729.06 5800 
3238.99 -1729.02 5800 1983.04 -1716.06 5800 3240.3 -1716.02 5800 
1985.21 -1703.06 5800 3241.6 -1703.02 5800 1986.6 -1690.06 5800 
3242.9 -1690.02 5800 1990.17 -1677.06 5800 3244.2 -1677.02 5800 
1993.86 -1664.06 5800 3245.5 -1664.02 5800 1997.53 -1651.06 5800 
3246.81 -1651.02 5800 2000.94 -1638.93 5800 2001.19 -1638.06 5800 
3247.99 -1639.25 5800 3248.1 -1638.01 5800 2004.93 -1625.06 5800 
3249.23 -1625.01 5800 2008.66 -1612.05 5800 3250.34 -1612.01 5800 
2012.4 -1599.05 5800 3251.62 -1599.01 5800 2016.13 -1586.05 5800 
3262.09 -1586.01 5800 2019.87 -1573.05 5800 3264.18 -1573.01 5800 
2023.6 -1560.05 5800 3265.12 -1560.01 5800 2027.34 -1547.05 5800 
3266.16 -1547.01 5800 2029.95 -1537.95 5800 2031.07 -1534.05 5800 
3267.37 -1534.01 5800 2034.81 -1521.05 5800 3267.8 -1521 5800 
2037.53 -1508.05 5800 3268.24 -1508 5800 2038.41 -1495.04 5800 
3268.68 -1495 5800 2039.28 -1482.04 5800 3269.11 -1482 5800 
2040.16 -1469.04 5800 3269.55 -1469 5800 2041.03 -1456.04 5800 
3269.98 -1456 5800 2041.93 -1443.04 5800 3270.42 -1443 5800 
2043.14 -1430.04 5800 3270.85 -1430 5800 2044.29 -1417.04 5800 
3271.29 -1417 5800 2045.41 -1404.04 5800 3271.73 -1404 5800 
2046.66 -1391.04 5800 3272.16 -1390.99 5800 2048.04 -1378.04 5800 
3272.6 -1377.99 5800 2049.42 -1365.03 5800 3273.03 -1364.99 5800 
2050.81 -1352.03 5800 3273.47 -1351.99 5800 2051.84 -1339.03 5800 
3273.91 -1338.99 5800 2052.65 -1326.03 5800 3274.34 -1325.99 5800 
2053.46 -1313.03 5800 3274.78 -1312.99 5800 2054.28 -1300.03 5800 
3275.21 -1299.99 5800 2055.09 -1287.03 5800 3275.65 -1286.99 5800 
2055.9 -1274.03 5800 3276.09 -1273.98 5800 2056.72 -1261.03 5800 
3276.52 -1260.98 5800 2057.53 -1248.03 5800 3276.96 -1247.98 5800 
2056.23 -1235.02 5800 3277.02 -1246.19 5800 3277.39 -1234.98 5800 
2054.45 -1222.02 5800 3277.83 -1221.98 5800 2052.97 -1209.02 5800 
3278.26 -1208.98 5800 2051.73 -1196.02 5800 3278.7 -1195.98 5800 
2050.67 -1183.02 5800 3279.14 -1182.98 5800 2049.75 -1170.02 5800 
3279.58 -1169.98 5800 2048.96 -1157.02 5800 3280.03 -1156.98 5800 
2048.25 -1144.02 5800 3280.49 -1143.97 5800 2047.63 -1131.02 5800 
3280.94 -1130.97 5800 2046.52 -1118.02 5800 3281.41 -1117.97 5800 
2045.3 -1105.01 5800 3281.97 -1104.97 5800 2044.02 -1092.01 5800 
3282.34 -1091.97 5800 2040.79 -1079.01 5800 3282.7 -1078.97 5800 
2040.59 -1066.01 5800 3283.19 -1065.97 5800 2041.1 -1053.01 5800 
3283.68 -1052.97 5800 2042.01 -1040.01 5800 3284.16 -1039.97 5800 
2044.04 -1027.01 5800 3284.62 -1026.97 5800 2046.06 -1014.01 5800 
3285.08 -1013.96 5800 2048.09 -1001.01 5800 3285.57 -1000.96 5800 
2050.11 -988.005 5800 3286.1 -987.963 5800 2052.14 -975.004 5800 
3286.63 -974.962 5800 2054.16 -962.003 5800 3287.16 -961.961 5800 
2056.19 -949.002 5800 2544.68 -948.985 5800 2552.01 -954.717 5800 
2581.01 -961.514 5800 2607.24 -948.983 5800 3286.44 -948.96 5800 
2058.21 -936.001 5800 2528.05 -935.985 5800 2610.02 -947.654 5800 
2639.02 -943.662 5800 2668.02 -942.138 5800 2697.02 -941.154 5800 
2726.02 -940.316 5800 2743.81 -935.977 5800 3285.75 -935.959 5800 
2059 -930.975 5800 2060.24 -923 5800 2509.92 -922.984 5800 
2523.02 -932.231 5800 2755.02 -932.321 5800 2759.72 -922.976 5800 
3285.03 -922.958 5800 2062.27 -909.999 5800 2491.89 -909.984 5800 
2494.02 -911.2 5800 2766.26 -909.975 5800 3282.33 -909.957 5800 
2064.29 -896.998 5800 2472 -896.984 5800 2772.79 -896.973 5800 
3279.63 -896.956 5800 2066.32 -883.997 5800 2453.8 -883.983 5800 
2465.02 -890.759 5800 2779.33 -883.972 5800 3277.04 -884.514 5800 
3276.93 -883.955 5800 2068.35 -870.996 5800 2432.81 -870.983 5800 
2436.02 -873.24 5800 2784.03 -874.624 5800 2785.87 -870.971 5800 
3274.23 -870.954 5800 2070.37 -857.995 5800 2418.17 -857.983 5800 
2792.4 -857.97 5800 3271.53 -857.953 5800 2072.4 -844.994 5800 
2407.91 -844.982 5800 2798.94 -844.969 5800 3268.83 -844.952 5800 
2074.37 -831.992 5800 2401.47 -831.981 5800 2407.02 -843.705 5800 
2805.47 -831.967 5800 3266.13 -831.951 5800 2076.36 -818.991 5800 
2392.11 -818.981 5800 2812.01 -818.966 5800 3263.43 -818.951 5800 
2078.32 -805.99 5800 2382.74 -805.98 5800 2813.03 -816.927 5800 
2818.59 -805.965 5800 3260.73 -805.95 5800 2080.26 -792.989 5800 
2373.37 -792.979 5800 2378.02 -799.435 5800 2830.69 -792.963 5800 
3257.68 -792.949 5800 2082.19 -779.988 5800 2364 -779.979 5800 
2842.04 -781.629 5800 2843.87 -779.962 5800 3254.32 -779.948 5800 
2084.13 -766.987 5800 2354.63 -766.978 5800 2858.12 -766.96 5800 
3250.97 -766.947 5800 2085.94 -753.986 5800 2345.26 -753.977 5800 
2349.02 -759.193 5800 2871.04 -755.177 5800 2872.06 -753.959 5800 
3248.05 -755.669 5800 3247.68 -753.946 5800 2084.49 -740.985 5800 
2335.9 -740.976 5800 2881.52 -740.958 5800 3245.15 -740.945 5800 
[...]
POINT_DATA 6535
SCALARS Pressure double
LOOKUP_TABLE default
3.0932710339 3.0932710339 3.0932710339 3.0932710339 3.0932710339 3.0932710339 3.0932710339 3.0932710339 3.0932710339 
3.0932710339 3.0932710339 3.0932710339 3.0932710339 3.0932710339 3.0932710339 3.0932710339 3.0932710339 3.0932710339 
3.0932710339 3.0932710339 3.0932710339 3.0932710339 3.0932710339 3.0932710339 3.0932710339 3.0932710339 3.0932710339 
3.0932710339 3.0932710339 3.0932710339 3.0932710339 3.0932710339 3.0932710339 3.0932710339 3.0932710339 3.0932710339 
3.0932710339 3.0932710339 3.0932710339 3.0932710339 3.0932710339 3.0932710339 3.0932710339 3.0932710339 3.0932710339 
3.0932710339 3.0932710339 3.0932710339 3.0932710339 3.0932710339 3.0932710339 3.0932710339 3.0932710339 3.0932710339 
3.0932710339 3.0932710339 3.0932710339 3.0932710339 3.0932710339 3.0932710339 3.0932710339 3.0932710339 3.0932710339 
3.0932710339 3.0932710339 3.0932710339 3.0932710339 3.0932710339 3.0932710339 3.0932710339 3.0932710339 3.0932710339 
3.0932710339 3.0932710339 3.0932710339 3.0932710339 3.0932710339 3.0932710339 3.0932710339 3.0932710339 3.0932710339 
3.0932710339 3.0932710339 3.0932710339 3.0932710339 3.0932710339 3.0932710339 3.0932710339 3.0932710339 3.0932710339 
3.0932710339 3.0932710339 3.0932710339 3.0932710339 3.0932710339 3.0932710339 3.0932710339 3.0932710339 3.0932710339 
3.0932710339 3.0932710339 3.0932710339 3.0932710339 3.0932710339 3.0932710339 3.0932710339 3.0932710339 3.0932710339 
3.0932710339 3.0932710339 3.0932710339 3.0932710339 3.0932710339 3.0932710339 3.0932710339 3.0932710339 3.0932710339 
3.0932710339 3.0932710339 3.0932710339 3.0932710339 3.0932710339 3.0932710339 3.0932710339 3.0932710339 3.0932710339 
3.0932710339 3.0932710339 3.0932710339 3.0932710339 3.0932710339 3.0932710339 3.0932710339 3.0932710339 3.0932710339 
3.0932710339 3.0932710339 3.0932710339 3.0932710339 3.0932710339 3.0932710339 3.0932710339 3.0932710339 3.0932710339 
3.0932710339 3.0932710339 3.0932710339 3.0932710339 3.0932710339 3.0932710339 3.0932710339 3.0932710339 3.0932710339 
3.0932710339 3.0932710339 3.0932710339 3.0932710339 3.0932710339 3.0932710339 3.0932710339 3.0932710339 3.0932710339 
3.0932710339 3.0932710339 3.0932710339 3.0932710339 3.0932710339 3.0932710339 3.0932710339 3.0932710339 3.0932710339 
3.0932710339 3.0932710339 3.0932710339 3.0932710339 3.0932710339 3.0932710339 3.0932710339 3.0932710339 3.0932710339 
3.0932710339 3.0932710339 3.0932710339 3.0932710339 3.0932710339 3.0932710339 3.0932710339 3.0932710339 3.0932710339 
3.0932710339 3.0932710339 3.0932710339 3.0932710339 3.0932710339 3.0932710339 3.0932710339 3.0932710339 3.0932710339 
3.0932710339 3.0932710339 3.0932710339 3.0932710339 3.0932710339 3.0932710339 3.0932710339 3.0932710339 3.0932710339 
3.0932710339 3.0932710339 3.0932710339 3.0932710339 3.0932710339 3.0932710339 3.0932710339 3.0932710339 3.0932710339 
3.0932710339 3.0932710339 3.0932710339 3.0932710339 3.0932710339 3.0932710339 3.0932710339 3.0932710339 3.0932710339 
3.0932710339 3.0932710339 3.0932710339 3.0932710339 3.0932710339 3.0932710339 3.0932710339 3.0932710339 3.0932710339 
3.0932710339 3.0932710339 3.0932710339 3.0932710339 3.0932710339 3.0932710339 3.0932710339 3.0932710339 3.0932710339 
3.0932710339 3.0932710339 3.0932710339 3.0932710339 3.0932710339 3.0932710339 3.0932710339 3.0932710339 3.0932710339 
3.0932710339 3.0932710339 3.0932710339 3.0932710339 3.0932710339 3.0932710339 3.0932710339 3.0932710339 3.0932710339 
3.0932710339 3.0932710339 3.0932710339 3.0932710339 3.0932710339 3.0932710339 3.0932710339 3.0932710339 3.0932710339 
3.0932710339 3.0932710339 3.0932710339 3.0932710339 3.0932710339 3.0932710339 3.0932710339 3.0932710339 3.0932710339 
3.0932710339 3.0932710339 3.0932710339 3.0932710339 3.0932710339 3.0932710339 3.0932710339 3.0932710339 3.0932710339 
3.0932710339 3.0932710339 3.0932710339 3.0932710339 3.0932710339 3.0932710339 3.0932710339 3.0932710339 3.0932710339 
3.0932710339 3.0932710339 3.0932710339 3.0932710339 3.0932710339 3.0932710339 3.0932710339 3.0932710339 3.0932710339 
3.0932710339 3.0932710339 3.0932710339 3.0932710339 3.0932710339 3.0932710339 3.0932710339 3.0932710339 3.0932710339 
3.0932710339 3.0932710339 3.0932710339 3.0932710339 3.0932710339 3.0932710339 3.0932710339 3.0932710339 3.0932710339 
3.0932710339 3.0932710339 3.0932710339 3.0932710339 3.0932710339 3.0932710339 3.0932710339 3.0932710339 3.0932710339 
3.0932710339 3.0932710339 3.0932710339 3.0932710339 3.0932710339 3.0932710339 3.0932710339 3.0932710339 3.0932710339 
3.0932710339 3.0932710339 3.0932710339 3.0932710339 3.0932710339 3.0932710339 3.0932710339 3.0932710339 3.0932710339 
3.0932710339 3.0932710339 3.0932710339 3.0932710339 3.0932710339 3.0932710339 3.0932710339 3.1078652246 3.1078652246 
3.1078652246 3.1078652246 3.0932710339 3.0932710339 3.1078652246 3.1078652246 3.1078652246 3.1078652246 3.1078652246 
3.1078652246 3.1078652246 3.0932710339 3.0932710339 3.0932710339 3.1078652246 3.1078652246 3.1078652246 3.1078652246 
3.0932710339 3.0932710339 3.1078652246 3.1078652246 3.1078652246 3.0932710339 3.0932710339 3.1078652246 3.1078652246 
3.0932710339 3.0932710339 3.1078652246 3.1078652246 3.1078652246 3.0932710339 3.0932710339 3.0932710339 3.1078652246 
3.1078652246 3.1078652246 3.1078652246 3.0932710339 3.0932710339 3.1078652246 3.1078652246 3.0932710339 3.0932710339 
3.1078652246 3.1078652246 3.0932710339 3.0932710339 3.1078652246 3.1078652246 3.1078652246 3.0932710339 3.0932710339 
3.1078652246 3.1078652246 3.0932710339 3.0932710339 3.1078652246 3.1078652246 3.1078652246 3.0932710339 3.0932710339 
3.1078652246 3.1078652246 3.1078652246 3.0932710339 3.0932710339 3.1078652246 3.1078652246 3.1078652246 3.0932710339 
3.0932710339 3.1078652246 3.1078652246 3.0932710339 3.0932710339 3.1078652246 3.1078652246 3.1078652246 3.1078652246 
3.0932710339 3.0932710339 3.0932710339 3.1078652246 3.1078652246 3.0932710339 3.0932710339 3.1078652246 3.1078652246 
3.0932710339 3.0932710339 3.1078652246 3.1078652246 3.1078652246 3.0932710339 3.0932710339 3.1078652246 3.1078652246 
3.0932710339 3.0932710339 3.1078652246 3.1078652246 3.1078652246 3.0932710339 3.0932710339 3.1078652246 3.1078652246 
3.0932710339 3.0932710339 3.0932710339 3.1078652246 3.1078652246 3.0932710339 3.0932710339 3.1078652246 3.1078652246 
3.0932710339 3.0932710339 3.1078652246 3.1078652246 3.0932710339 3.0932710339 3.1078652246 3.1078652246 3.1078652246 
3.0932710339 3.0932710339 3.1078652246 3.1224594153 3.1224594153 3.1224594153 3.1078652246 3.0932710339 3.0932710339 
3.1078652246 3.1078652246 3.1224594153 3.1224594153 3.1224594153 3.1224594153 3.1078652246 3.0932710339 3.0932710339 
3.1078652246 3.1224594153 3.1224594153 3.1224594153 3.1224594153 3.1078652246 3.0932710339 3.0932710339 3.1078652246 
3.1224594153 3.1224594153 3.1224594153 3.1224594153 3.1078652246 3.0932710339 3.0932710339 3.1078652246 3.1224594153 
3.1224594153 3.1224594153 3.1078652246 3.1078652246 3.0932710339 3.0932710339 3.1078652246 3.1224594153 3.1224594153 
3.1224594153 3.1078652246 3.0932710339 3.0932710339 3.1078652246 3.1224594153 3.1224594153 3.1224594153 3.1078652246 
3.0932710339 3.0932710339 3.1078652246 3.1078652246 3.1224594153 3.1224594153 3.1224594153 3.1078652246 3.0932710339 
3.0932710339 3.0932710339 3.1078652246 3.1224594153 3.1224594153 3.1224594153 3.1078652246 3.1078652246 3.0932710339 
3.0786768432 3.0786768432 3.0786768432 3.0932710339 3.1078652246 3.1224594153 3.1224594153 3.1078652246 3.0932710339 
3.0786768432 3.0786768432 3.0786768432 3.0786768432 3.0786768432 3.0786768432 3.0786768432 3.0786768432 3.0786768432 
3.0932710339 3.1078652246 3.1224594153 3.1224594153 3.1078652246 3.0932710339 3.0786768432 3.0786768432 3.0786768432 
3.0786768432 3.0786768432 3.0786768432 3.0786768432 3.0786768432 3.0786768432 3.0786768432 3.0932710339 3.1078652246 
3.1224594153 3.1224594153 3.1224594153 3.1224594153 3.1078652246 3.0932710339 3.0786768432 3.0786768432 3.0786768432 
3.0786768432 3.0786768432 3.0786768432 3.0786768432 3.0932710339 3.0932710339 3.1078652246 3.1224594153 3.1224594153 
3.1078652246 3.0932710339 3.0786768432 3.0786768432 3.0786768432 3.0786768432 3.0786768432 3.0786768432 3.0932710339 
3.1078652246 3.1224594153 3.1224594153 3.1224594153 3.1078652246 3.0932710339 3.0786768432 3.0786768432 3.0786768432 
3.0786768432 3.0786768432 3.0786768432 3.0932710339 3.1078652246 3.1224594153 3.1224594153 3.1224594153 3.1078652246 
3.1078652246 3.0932710339 3.0786768432 3.0786768432 3.0786768432 3.0786768432 3.0786768432 3.0786768432 3.0786768432 
3.0932710339 3.1078652246 3.1078652246 3.1224594153 3.1224594153 3.1078652246 3.0932710339 3.0786768432 3.0786768432 
3.0786768432 3.0786768432 3.0932710339 3.1078652246 3.1224594153 3.137053606 3.137053606 3.137053606 3.137053606 
3.137053606 3.1224594153 3.1078652246 3.0932710339 3.0786768432 3.0786768432 3.0786768432 3.0786768432 3.0786768432 
3.0786768432 3.0932710339 3.1078652246 3.1224594153 3.137053606 3.137053606 3.137053606 3.1224594153 3.1224594153 
3.1078652246 3.0932710339 3.0786768432 3.0786768432 3.0786768432 3.0786768432 3.0786768432 3.0786768432 3.0932710339 
3.1078652246 3.1224594153 3.1224594153 3.137053606 3.137053606 3.137053606 3.137053606 3.1224594153 3.1078652246 
3.0932710339 3.0786768432 3.0786768432 3.0786768432 3.0786768432 3.0786768432 3.0786768432 3.0932710339 3.1078652246 
3.1224594153 3.137053606 3.137053606 3.137053606 3.1224594153 3.1078652246 3.1078652246 3.0932710339 3.0786768432 
3.0786768432 3.0786768432 3.0786768432 3.0786768432 3.0786768432 3.0932710339 3.1078652246 3.1224594153 3.137053606 
3.137053606 3.137053606 3.1224594153 3.1078652246 3.0932710339 3.0786768432 3.0786768432 3.0786768432 3.0786768432 
3.0786768432 3.0932710339 3.1078652246 3.1224594153 3.137053606 3.137053606 3.137053606 3.1224594153 3.1224594153 
3.1078652246 3.0932710339 3.0786768432 3.0786768432 3.0786768432 3.0786768432 3.0786768432 3.0932710339 3.1078652246 
3.1224594153 3.137053606 3.137053606 3.1224594153 3.1078652246 3.0932710339 3.0786768432 3.0786768432 3.0786768432 
3.0786768432 3.0786768432 3.0932710339 3.1078652246 3.1224594153 3.1224594153 3.137053606 3.137053606 3.137053606 
3.1224594153 3.1078652246 3.0932710339 3.0786768432 3.0786768432 3.0786768432 3.0786768432 3.0786768432 3.0932710339 
3.1078652246 3.1224594153 3.137053606 3.137053606 3.137053606 3.1224594153 3.1078652246 3.0932710339 3.0786768432 
3.0786768432 3.0786768432 3.0786768432 3.0786768432 3.0932710339 3.1078652246 3.1224594153 3.137053606 3.137053606 
3.1224594153 3.1078652246 3.0932710339 3.0786768432 3.0786768432 3.0786768432 3.0786768432 3.0786768432 3.0932710339 
3.1078652246 3.1224594153 3.137053606 3.137053606 3.1224594153 3.1224594153 3.1078652246 3.0932710339 3.0786768432 
3.0786768432 3.0786768432 3.0786768432 3.0786768432 3.0932710339 3.1078652246 3.1078652246 3.1224594153 3.137053606 
3.137053606 3.1516477967 3.1516477967 3.1516477967 3.1516477967 3.137053606 3.137053606 3.1224594153 3.1078652246 
3.1078652246 3.0932710339 3.0786768432 3.0786768432 3.0786768432 3.0786768432 3.0786768432 3.0932710339 3.1078652246 
3.1224594153 3.1224594153 3.137053606 3.1516477967 3.1516477967 3.1516477967 3.1516477967 3.137053606 3.1224594153 
3.1078652246 3.0932710339 3.0786768432 3.0786768432 3.0786768432 3.0786768432 3.0932710339 3.1078652246 3.1224594153 
3.137053606 3.1516477967 3.1516477967 3.1516477967 3.1516477967 3.137053606 3.1224594153 3.1078652246 3.0932710339 
3.0786768432 3.0786768432 3.0786768432 3.0786768432 3.0932710339 3.0932710339 3.1078652246 3.1224594153 3.137053606 
3.137053606 3.1516477967 3.1516477967 3.1516477967 3.137053606 3.1224594153 3.1078652246 3.0932710339 3.0786768432 
3.0786768432 3.0786768432 3.0786768432 3.0786768432 3.0932710339 3.1078652246 3.1224594153 3.137053606 3.1516477967 
3.1516477967 3.1516477967 3.137053606 3.137053606 3.1224594153 3.1078652246 3.0932710339 3.0786768432 3.0786768432 
3.0786768432 3.0786768432 3.0786768432 3.0640826525 3.0640826525 3.0640826525 3.0640826525 3.0640826525 3.0640826525 
3.0640826525 3.0640826525 3.0786768432 3.0932710339 3.1078652246 3.1224594153 3.137053606 3.1516477967 3.1516477967 
3.1516477967 3.137053606 3.1224594153 3.1078652246 3.0932710339 3.0786768432 3.0786768432 3.0786768432 3.0786768432 
3.0640826525 3.0640826525 3.0640826525 3.0786768432 3.0932710339 3.1078652246 3.1224594153 3.1224594153 3.137053606 
3.137053606 3.1516477967 3.1516477967 3.137053606 3.1224594153 3.1078652246 3.0932710339 3.0786768432 3.0786768432 
3.0786768432 3.0640826525 3.0640826525 3.0640826525 3.0786768432 3.0932710339 3.1078652246 3.1224594153 3.137053606 
3.1516477967 3.1516477967 3.1516477967 3.137053606 3.1224594153 3.1078652246 3.0932710339 3.0786768432 3.0786768432 
3.0786768432 3.0640826525 3.0640826525 3.0640826525 3.0786768432 3.0932710339 3.0932710339 3.1078652246 3.1224594153 
3.137053606 3.1516477967 3.1516477967 3.137053606 3.1224594153 3.1078652246 3.0932710339 3.0786768432 3.0786768432 
3.0786768432 3.0786768432 3.0640826525 3.0640826525 3.0640826525 3.0786768432 3.0932710339 3.1078652246 3.1224594153 
3.137053606 3.137053606 3.1516477967 3.1516477967 3.1516477967 3.137053606 3.1224594153 3.1078652246 3.0932710339 
3.0786768432 3.0786768432 3.0786768432 3.0786768432 3.0640826525 3.0640826525 3.0786768432 3.0932710339 3.1078652246 
3.1224594153 3.137053606 3.1516477967 3.1662419875 3.1662419875 3.1662419875 3.1662419875 3.1662419875 3.1516477967 
3.137053606 3.1224594153 3.1224594153 3.1078652246 3.0932710339 3.0786768432 3.0786768432 3.0786768432 3.0640826525 
3.0640826525 3.0786768432 3.0786768432 3.0932710339 3.0932710339 3.1078652246 3.1224594153 3.137053606 3.1516477967 
3.1516477967 3.1662419875 3.1662419875 3.1662419875 3.1662419875 3.1516477967 3.137053606 3.1224594153 3.1078652246 
3.1078652246 3.0932710339 3.0786768432 3.0786768432 3.0786768432 3.0786768432 3.0786768432 3.0786768432 3.0786768432 
3.0786768432 3.0640826525 3.0640826525 3.0494884618 3.0494884618 3.0494884618 3.0494884618 3.0494884618 3.0494884618 
3.0640826525 3.0640826525 3.0786768432 3.0932710339 3.1078652246 3.1078652246 3.1224594153 3.1224594153 3.137053606 
3.1516477967 3.1662419875 3.1662419875 3.1662419875 3.1516477967 3.1516477967 3.137053606 3.1224594153 3.1224594153 
3.1078652246 3.0932710339 3.0786768432 3.0786768432 3.0786768432 3.0786768432 3.0786768432 3.0640826525 3.0494884618 
3.0494884618 3.0494884618 3.0640826525 3.0786768432 3.0932710339 3.0932710339 3.1078652246 3.1224594153 3.137053606 
3.137053606 3.1516477967 3.1662419875 3.1662419875 3.1516477967 3.1516477967 3.137053606 3.1224594153 3.1078652246 
3.0932710339 3.0932710339 3.0786768432 3.0640826525 3.0640826525 3.0640826525 3.0640826525 3.0786768432 3.0786768432 
3.0786768432 3.0640826525 3.0494884618 3.0494884618 3.0494884618 3.0640826525 3.0786768432 3.0932710339 3.1078652246 
3.1224594153 3.137053606 3.1516477967 3.1662419875 3.1662419875 3.1662419875 3.1662419875 3.1516477967 3.137053606 
3.1224594153 3.1078652246 3.0932710339 3.0786768432 3.0786768432 3.0640826525 3.0640826525 3.0640826525 3.0786768432 
3.0786768432 3.0640826525 3.0494884618 3.0494884618 3.0640826525 3.0786768432 3.0932710339 3.1078652246 3.1224594153 
3.137053606 3.1516477967 3.1516477967 3.1662419875 3.1662419875 3.1516477967 3.137053606 3.1224594153 3.1078652246 
3.0932710339 3.0786768432 3.0640826525 3.0640826525 3.0640826525 3.0640826525 3.0786768432 3.0786768432 3.0786768432 
3.0640826525 3.0494884618 3.0348942711 3.0348942711 3.0348942711 3.0348942711 3.0348942711 3.0494884618 3.0494884618 
3.0640826525 3.0786768432 3.0932710339 3.1078652246 3.1224594153 3.1224594153 3.137053606 3.1516477967 2.9473291268 
2.9473291268 2.9619233175 2.9619233175 2.9765175082 2.9765175082 2.991111699 2.991111699 3.0057058897 3.0057058897 
3.0203000804 3.0203000804 3.0348942711 3.0348942711 3.0494884618 3.0494884618 3.0640826525 3.0640826525 3.0786768432 
3.0786768432 3.0932710339 3.0932710339 3.1078652246 3.1078652246 3.1224594153 3.1224594153 3.137053606 3.137053606 
3.1516477967 3.1516477967 2.9473291268 2.9619233175 2.9765175082 2.991111699 3.0057058897 3.0203000804 3.0348942711 
3.0494884618 3.0640826525 3.0786768432 3.0932710339 3.1078652246 3.1224594153 3.137053606 3.1516477967 2.9473291268 
2.9619233175 2.9765175082 2.991111699 3.0057058897 3.0203000804 3.0348942711 3.0494884618 3.0640826525 3.0786768432 
3.0932710339 3.1078652246 3.1224594153 3.137053606 3.1516477967 3.1662419875 2.9473291268 2.9619233175 2.9765175082 
2.991111699 3.0057058897 3.0203000804 3.0348942711 3.0494884618 3.0640826525 3.0786768432 3.0932710339 3.1078652246 
3.1224594153 3.137053606 3.1516477967 3.1662419875 2.9473291268 2.9619233175 2.9765175082 2.991111699 3.0057058897 
3.0203000804 3.0348942711 3.0494884618 3.0640826525 3.0786768432 3.0932710339 3.1078652246 3.1224594153 3.137053606 
3.1516477967 3.1662419875 2.9473291268 2.9619233175 2.9765175082 2.991111699 3.0057058897 3.0203000804 3.0348942711 
3.0494884618 3.0640826525 3.0786768432 3.0932710339 3.1078652246 3.1224594153 3.137053606 3.1516477967 3.1662419875 
2.9473291268 2.9619233175 2.9765175082 2.991111699 3.0057058897 3.0203000804 3.0348942711 3.0494884618 3.0640826525 
3.0786768432 3.0932710339 3.1078652246 3.1224594153 3.137053606 3.1516477967 3.1662419875 2.9473291268 2.9619233175 
2.9765175082 2.991111699 3.0057058897 3.0203000804 3.0348942711 3.0494884618 3.0640826525 3.0786768432 3.0932710339 
3.1078652246 3.1224594153 3.137053606 3.1516477967 3.1662419875 2.9473291268 2.9619233175 2.9765175082 2.991111699 
3.0057058897 3.0203000804 3.0348942711 3.0494884618 3.0640826525 3.0786768432 3.0932710339 3.1078652246 3.1224594153 
3.137053606 3.1516477967 3.1662419875 2.9473291268 2.9619233175 2.9765175082 2.991111699 3.0057058897 3.0203000804 
3.0348942711 3.0494884618 3.0640826525 3.0786768432 3.0932710339 3.1078652246 3.1224594153 3.137053606 3.1516477967 
3.1662419875 2.9473291268 2.9619233175 2.9765175082 2.991111699 3.0057058897 3.0203000804 3.0348942711 3.0494884618 
3.0640826525 3.0786768432 3.0932710339 3.1078652246 3.1224594153 3.137053606 3.1516477967 2.9473291268 2.9619233175 
2.9765175082 2.991111699 3.0057058897 3.0203000804 3.0348942711 3.0494884618 3.0640826525 3.0786768432 3.0932710339 
3.1078652246 3.1224594153 3.137053606 3.1516477967 2.9473291268 2.9619233175 2.9765175082 2.991111699 3.0057058897 
3.0203000804 3.0348942711 3.0494884618 3.0640826525 3.0786768432 3.0932710339 3.1078652246 3.1224594153 3.137053606 
2.9473291268 2.9619233175 2.9765175082 2.991111699 3.0057058897 3.0203000804 3.0348942711 3.0494884618 3.0640826525 
3.0786768432 3.0932710339 3.1078652246 3.1224594153 3.137053606 2.9473291268 2.9619233175 2.9765175082 2.991111699 
3.0057058897 3.0203000804 3.0348942711 3.0494884618 3.0640826525 3.0786768432 3.0932710339 3.1078652246 3.1224594153 
3.137053606 2.9473291268 2.9619233175 2.9765175082 2.991111699 3.0057058897 3.0203000804 3.0348942711 3.0494884618 
3.0640826525 3.0786768432 3.0932710339 3.1078652246 3.1224594153 3.137053606 3.1224594153 3.1078652246 3.0932710339 
3.0786768432 3.0640826525 3.0640826525 3.0640826525 3.0786768432 3.0786768432 3.0640826525 3.0494884618 3.0348942711 
3.0348942711 3.0494884618 3.0640826525 3.0786768432 3.0932710339 3.1078652246 3.1224594153 2.9473291268 2.9473291268 
2.9619233175 2.9619233175 2.9765175082 2.9765175082 2.991111699 2.991111699 3.0057058897 3.0057058897 3.0203000804 
3.0203000804 3.0348942711 3.0348942711 3.0494884618 3.0494884618 3.0640826525 3.0640826525 3.0786768432 3.0786768432 
3.0932710339 3.0932710339 3.1078652246 3.1078652246 3.1224594153 3.1224594153 2.9473291268 2.9619233175 2.9765175082 
2.991111699 3.0057058897 3.0203000804 3.0348942711 3.0494884618 3.0640826525 3.0786768432 3.0932710339 3.1078652246 
3.1224594153 3.137053606 2.9473291268 2.9619233175 2.9765175082 2.991111699 3.0057058897 3.0203000804 3.0348942711 