# vtk DataFile Version 4.2
vtk output
ASCII
DATASET POLYDATA
POINTS 7459 float
1584.94 -3060.14 0 1590.86 -3069.9 0 1627.86 -3074.89 0 
1660.03 -3060.14 0 1574.63 -3043.14 0 1664.87 -3057.92 0 
1697.1 -3043.13 0 1564.33 -3026.14 0 1701.87 -3040.95 0 
1734.18 -3026.13 0 1554.02 -3009.14 0 1738.87 -3023.98 0 
1771.25 -3009.13 0 1543.71 -2992.13 0 1553.86 -3008.88 0 
1775.87 -3007.01 0 1808.33 -2992.13 0 1533.4 -2975.13 0 
1812.87 -2990.27 0 1849.87 -2980.41 0 1886.88 -2975.37 0 
1888.67 -2975.12 0 1523.1 -2958.13 0 1923.88 -2970.33 0 
1960.88 -2965.28 0 1997.88 -2960.24 0 2013.43 -2958.12 0 
1512.79 -2941.13 0 1516.87 -2947.86 0 2034.88 -2955.2 0 
2071.88 -2950.15 0 2108.88 -2945.11 0 2138.19 -2941.12 0 
1502.48 -2924.13 0 2145.89 -2940.07 0 2182.89 -2935.02 0 
2219.89 -2929.98 0 2256.89 -2924.94 0 2257.42 -2924.11 0 
1477.87 -2907.13 0 1479.87 -2908.48 0 2262.34 -2907.11 0 
1435.28 -2890.13 0 1442.87 -2893.16 0 2265.61 -2890.11 0 
1392.69 -2873.13 0 1405.87 -2878.39 0 2268.89 -2873.11 0 
1350.1 -2856.13 0 1368.87 -2863.62 0 2272.16 -2856.11 0 
1307.51 -2839.13 0 1331.87 -2848.85 0 2275.43 -2839.11 0 
1264.92 -2822.13 0 1294.87 -2834.08 0 2278.71 -2822.1 0 
1222.33 -2805.13 0 1257.87 -2819.32 0 2281.98 -2805.1 0 
1179.74 -2788.13 0 1183.87 -2789.78 0 1220.87 -2804.55 0 
2285.25 -2788.1 0 1137.16 -2771.13 0 1146.87 -2775.01 0 
2288.53 -2771.1 0 1094.57 -2754.13 0 1109.87 -2760.24 0 
2291.8 -2754.1 0 1060.57 -2737.13 0 1072.87 -2745.47 0 
2293.9 -2743.2 0 2295.07 -2737.1 0 1040.31 -2720.13 0 
2298.35 -2720.1 0 1020.01 -2703.13 0 1035.87 -2716.41 0 
2301.62 -2703.1 0 999.704 -2686.13 0 2304.9 -2686.1 0 
979.401 -2669.13 0 998.869 -2685.43 0 2308.17 -2669.09 0 
960.84 -2652.13 0 961.87 -2654.45 0 2311.44 -2652.09 0 
953.397 -2635.13 0 2314.72 -2635.09 0 946.127 -2618.13 0 
2317.99 -2618.09 0 939.025 -2601.13 0 2321.26 -2601.09 0 
932.085 -2584.13 0 2324.54 -2584.09 0 925.301 -2567.13 0 
2327.81 -2567.09 0 919.086 -2550.13 0 924.874 -2566.04 0 
2330.91 -2550.98 0 2331.08 -2550.09 0 912.904 -2533.12 0 
2334.36 -2533.09 0 906.722 -2516.12 0 2337.63 -2516.08 0 
900.54 -2499.12 0 2340.91 -2499.08 0 894.358 -2482.12 0 
2344.18 -2482.08 0 888.176 -2465.12 0 2347.45 -2465.08 0 
881.995 -2448.12 0 887.879 -2464.3 0 2350.73 -2448.08 0 
875.813 -2431.12 0 2354 -2431.08 0 869.631 -2414.12 0 
2357.27 -2414.08 0 863.449 -2397.12 0 2360.55 -2397.08 0 
857.267 -2380.12 0 2363.82 -2380.08 0 851.085 -2363.12 0 
2367.09 -2363.07 0 844.903 -2346.12 0 850.884 -2362.56 0 
2367.93 -2358.76 0 2370.37 -2346.07 0 838.722 -2329.11 0 
2373.64 -2329.07 0 832.54 -2312.11 0 2376.92 -2312.07 0 
826.358 -2295.11 0 2380.19 -2295.07 0 820.176 -2278.11 0 
2383.46 -2278.07 0 813.994 -2261.11 0 2386.74 -2261.07 0 
807.812 -2244.11 0 813.889 -2260.82 0 2390.01 -2244.07 0 
801.63 -2227.11 0 2397.51 -2227.07 0 795.449 -2210.11 0 
2404.93 -2217.1 0 2410.17 -2210.06 0 789.267 -2193.11 0 
2422.83 -2193.06 0 783.085 -2176.11 0 2435.49 -2176.06 0 
776.903 -2159.11 0 2441.94 -2167.4 0 2448.15 -2159.06 0 
771.295 -2142.11 0 776.894 -2159.08 0 2460.8 -2142.06 0 
768.949 -2125.1 0 2473.46 -2125.06 0 766.844 -2108.1 0 
2478.94 -2117.7 0 2486.12 -2108.06 0 764.74 -2091.1 0 
2498.78 -2091.06 0 762.635 -2074.1 0 2509.05 -2074.05 0 
760.53 -2057.1 0 2509.51 -2057.05 0 758.425 -2040.1 0 
2509.77 -2040.05 0 756.321 -2023.1 0 2509.36 -2023.05 0 
754.216 -2006.1 0 2508.36 -2006.05 0 752.111 -1989.1 0 
2507.37 -1989.05 0 750.007 -1972.1 0 2506.37 -1972.05 0 
747.902 -1955.09 0 2505.37 -1955.05 0 745.797 -1938.09 0 
2504.37 -1938.05 0 743.692 -1921.09 0 2503.37 -1921.05 0 
741.588 -1904.09 0 2502.38 -1904.04 0 739.483 -1887.09 0 
739.909 -1890.53 0 2501.38 -1887.04 0 737.378 -1870.09 0 
2500.38 -1870.04 0 735.273 -1853.09 0 2499.38 -1853.04 0 
733.169 -1836.09 0 2498.38 -1836.04 0 731.064 -1819.09 0 
2497.39 -1819.04 0 728.959 -1802.09 0 2496.39 -1802.04 0 
726.854 -1785.09 0 2495.39 -1785.04 0 724.75 -1768.08 0 
2494.39 -1768.04 0 721.155 -1751.08 0 2493.39 -1751.04 0 
716.961 -1734.08 0 2492.4 -1734.03 0 713.784 -1717.08 0 
2491.4 -1717.03 0 708.426 -1700.08 0 2490.4 -1700.03 0 
701.998 -1683.08 0 702.92 -1685.57 0 2489.4 -1683.03 0 
695.646 -1666.08 0 2488.4 -1666.03 0 690.995 -1649.08 0 
2487.41 -1649.03 0 -481.109 -1632.86 0 -482.517 -1632.11 0 
-444.108 -1637.52 0 -426.014 -1632.11 0 687.903 -1632.08 0 
2486.41 -1632.03 0 -514.403 -1615.11 0 -407.107 -1626.45 0 
-370.105 -1615.39 0 -369.145 -1615.1 0 684.378 -1615.08 0 
2485.41 -1615.03 0 -518.109 -1613.13 0 -546.288 -1598.11 0 
-333.103 -1604.33 0 -312.277 -1598.1 0 680.854 -1598.08 0 
2484.41 -1598.03 0 -555.109 -1593.41 0 -578.174 -1581.11 0 
-296.102 -1593.27 0 -259.1 -1582.2 0 -255.409 -1581.1 0 
677.329 -1581.07 0 2484.34 -1581.03 0 -592.109 -1573.68 0 
-610.059 -1564.11 0 -222.098 -1571.14 0 -198.541 -1564.1 0 
673.804 -1564.07 0 2485.4 -1564.02 0 -629.108 -1553.95 0 
-641.945 -1547.11 0 -185.097 -1560.08 0 -148.095 -1548.56 0 
-143.584 -1547.09 0 670.28 -1547.07 0 2486.57 -1547.02 0 
-666.108 -1534.23 0 -673.83 -1530.11 0 -111.093 -1536.55 0 
-91.2184 -1530.09 0 666.755 -1530.07 0 2487.73 -1530.02 0 
-703.108 -1514.5 0 -705.715 -1513.11 0 -74.0917 -1524.53 0 
-62.5753 -1513.09 0 663.23 -1513.07 0 665.928 -1526.08 0 
2488.9 -1513.02 0 -737.601 -1496.11 0 -44.5128 -1496.09 0 
659.706 -1496.07 0 2490.06 -1496.02 0 -740.108 -1494.77 0 
-758.196 -1479.11 0 -37.0886 -1488.54 0 -32.009 -1479.09 0 
656.181 -1479.07 0 2491.23 -1479.02 0 -770.654 -1462.11 0 
-21.0155 -1462.09 0 652.656 -1462.07 0 2492.39 -1462.02 0 
-777.106 -1452.69 0 -782.3 -1445.11 0 -9.50989 -1445.09 0 
649.132 -1445.07 0 1350.79 -1445.05 0 1368.95 -1450.69 0 
1405.95 -1451.35 0 1442.95 -1452.02 0 1479.95 -1452.69 0 
1516.96 -1453.35 0 1553.96 -1451.16 0 1561.65 -1445.04 0 
2493.56 -1445.02 0 -793.945 -1428.11 0 -0.0842536 -1432.4 0 
3.1187 -1428.08 0 645.607 -1428.07 0 1311.18 -1428.05 0 
1331.95 -1438.18 0 1582.04 -1428.04 0 2494.72 -1428.02 0 
-805.591 -1411.1 0 15.7473 -1411.08 0 642.082 -1411.07 0 
1276.34 -1411.05 0 1294.95 -1420.13 0 1590.96 -1420.61 0 
1602.44 -1411.04 0 2495.89 -1411.02 0 -814.104 -1398.68 0 
-817.236 -1394.1 0 28.3758 -1394.08 0 638.558 -1394.06 0 
1241.45 -1394.05 0 1257.95 -1402.07 0 1622.83 -1394.04 0 
2497.05 -1394.01 0 -828.882 -1377.1 0 36.9197 -1382.58 0 
41.0045 -1377.08 0 635.033 -1377.06 0 1215.19 -1377.05 0 
1220.95 -1384.04 0 1627.96 -1389.76 0 1643.23 -1377.04 0 
2498.22 -1377.01 0 -840.527 -1360.1 0 53.6331 -1360.08 0 
631.508 -1360.06 0 1199.43 -1360.05 0 1663.62 -1360.04 0 
2499.38 -1360.01 0 -851.102 -1344.67 0 -852.173 -1343.1 0 
66.2616 -1343.08 0 627.984 -1343.06 0 628.938 -1347.66 0 
1181.44 -1343.05 0 1183.95 -1345.76 0 1664.97 -1358.91 0 
1684.02 -1343.03 0 2500.55 -1343.01 0 -863.818 -1326.1 0 
73.9236 -1332.76 0 78.8902 -1326.08 0 624.459 -1326.06 0 
1165.73 -1326.05 0 1701.97 -1328.07 0 1704.62 -1326.03 0 
2500.79 -1326.01 0 -875.464 -1309.1 0 91.5189 -1309.07 0 
619.065 -1309.06 0 1146.97 -1309.05 0 1726.54 -1309.03 0 
2498.8 -1309.01 0 -887.109 -1292.1 0 104.147 -1292.07 0 
609.803 -1292.06 0 1123.01 -1292.05 0 1146.95 -1309.03 0 
1738.97 -1297.53 0 1742.08 -1292.03 0 2497.29 -1292.01 0 
-888.1 -1290.65 0 -898.755 -1275.1 0 110.928 -1282.95 0 
116.776 -1275.07 0 600.54 -1275.06 0 1099.05 -1275.05 0 
1109.95 -1282.78 0 1749.15 -1275.03 0 2494.78 -1275.01 0 
-910.4 -1258.1 0 129.405 -1258.07 0 591.398 -1258.06 0 
591.942 -1259.28 0 1075.09 -1258.04 0 1757.74 -1258.03 0 
2491.38 -1258.01 0 -922.046 -1241.1 0 142.033 -1241.07 0 
584.755 -1241.06 0 1051.13 -1241.04 0 1072.96 -1256.53 0 
1769.75 -1241.03 0 2487.99 -1241.01 0 -925.098 -1236.64 0 
-933.691 -1224.1 0 147.931 -1233.13 0 152.024 -1224.07 0 
580.972 -1224.06 0 1027.17 -1224.04 0 1035.96 -1230.27 0 
1775.98 -1232.2 0 1781.75 -1224.02 0 2484.59 -1224 0 
-945.337 -1207.1 0 156.08 -1207.07 0 577.189 -1207.06 0 
1003.21 -1207.04 0 1793.76 -1207.02 0 2481.19 -1207 0 
-956.982 -1190.1 0 158.186 -1190.07 0 573.406 -1190.05 0 
987.211 -1190.04 0 998.956 -1204.02 0 1805.77 -1190.02 0 
2479 -1196.01 0 2477.84 -1190 0 -962.096 -1182.63 0 
-968.628 -1173.1 0 160.293 -1173.06 0 569.622 -1173.05 0 
972.861 -1173.04 0 1812.98 -1179.81 0 1817.77 -1173.02 0 
2475.06 -1173 0 -980.273 -1156.09 0 162.399 -1156.06 0 
565.839 -1156.05 0 959.188 -1156.04 0 961.958 -1160.18 0 
1829.78 -1156.02 0 2474.71 -1156 0 -991.919 -1139.09 0 
164.505 -1139.06 0 562.056 -1139.05 0 948.403 -1139.04 0 
1841.79 -1139.02 0 2474.37 -1139 0 -999.093 -1128.61 0 
-1003.56 -1122.09 0 166.612 -1122.06 0 558.273 -1122.05 0 
938.478 -1122.04 0 1849.98 -1127.41 0 1853.79 -1122.02 0 
2474.04 -1122 0 -1021.8 -1105.09 0 168.718 -1105.06 0 
554.485 -1105.05 0 554.95 -1107.12 0 929.362 -1105.04 0 
1865.8 -1105.01 0 2473.73 -1105 0 -1031.32 -1088.09 0 
170.825 -1088.06 0 550.671 -1088.05 0 920.623 -1088.04 0 
924.961 -1096.48 0 1876.42 -1088.01 0 2473.42 -1088 0 
-1034.86 -1071.09 0 173.045 -1071.06 0 546.861 -1071.05 0 
911.884 -1071.04 0 1884.93 -1071.01 0 2473.11 -1071 0 
-1036.09 -1062.48 0 -1037.47 -1054.09 0 179.956 -1054.06 0 
543.057 -1054.05 0 899.677 -1054.04 0 1886.99 -1066.45 0 
1891.84 -1054.01 0 2472.81 -1054 0 -1040.07 -1037.09 0 
184.944 -1041.84 0 186.896 -1037.06 0 539.258 -1037.05 0 
885.421 -1037.04 0 887.963 -1040.07 0 1898.46 -1037.01 0 
2472.51 -1036.99 0 -1042.44 -1020.09 0 193.836 -1020.05 0 
535.464 -1020.05 0 871.165 -1020.04 0 1905.08 -1020.01 0 
2472.21 -1019.99 0 -1044.61 -1003.09 0 200.775 -1003.05 0 
531.675 -1003.04 0 856.908 -1003.04 0 1911.71 -1003.01 0 
2471.92 -1002.99 0 -1046.6 -986.086 0 207.715 -986.052 0 
527.891 -986.044 0 842.652 -986.035 0 850.964 -995.948 0 
1918.33 -986.006 0 2471.64 -985.991 0 -1048.52 -969.085 0 
214.655 -969.051 0 523.743 -969.043 0 828.396 -969.035 0 
1923.99 -971.469 0 1924.95 -969.005 0 2471.5 -968.99 0 
-1050.79 -952.084 0 221.595 -952.05 0 518.445 -952.042 0 
814.14 -952.034 0 1931.58 -952.004 0 2469.67 -951.989 0 
-1053.05 -935.083 0 221.95 -951.18 0 225.764 -935.049 0 
[...]
POINT_DATA 7459
SCALARS Pressure double
LOOKUP_TABLE default
3.0932710339 3.0932710339 3.0932710339 3.0932710339 3.0932710339 3.0932710339 3.0932710339 3.0932710339 3.0932710339 
3.0932710339 3.0932710339 3.0932710339 3.0932710339 3.0932710339 3.0932710339 3.0932710339 3.0932710339 3.0932710339 
3.0932710339 3.0932710339 3.0932710339 3.0932710339 3.0932710339 3.0932710339 3.0932710339 3.0932710339 3.0932710339 
3.0932710339 3.0932710339 3.0932710339 3.0932710339 3.0932710339 3.0932710339 3.0932710339 3.0932710339 3.0932710339 
3.0932710339 3.0932710339 3.0932710339 3.0932710339 3.0932710339 3.0932710339 3.0932710339 3.0932710339 3.0932710339 
3.0932710339 3.0932710339 3.0932710339 3.0932710339 3.0932710339 3.0932710339 3.0932710339 3.0932710339 3.0932710339 
3.0932710339 3.0932710339 3.0932710339 3.0932710339 3.0932710339 3.0932710339 3.0932710339 3.0932710339 3.0932710339 
3.0932710339 3.0932710339 3.0932710339 3.0932710339 3.0932710339 3.0932710339 3.0932710339 3.0932710339 3.0932710339 
3.0932710339 3.0932710339 3.0932710339 3.0932710339 3.0932710339 3.0932710339 3.0932710339 3.0932710339 3.0932710339 
3.0932710339 3.0932710339 3.0932710339 3.0932710339 3.0932710339 3.0932710339 3.0932710339 3.0932710339 3.0932710339 
3.0932710339 3.0932710339 3.0932710339 3.0932710339 3.0932710339 3.0932710339 3.0932710339 3.0932710339 3.0932710339 
3.0932710339 3.0932710339 3.0932710339 3.0932710339 3.0932710339 3.0932710339 3.0932710339 3.0932710339 3.0932710339 
3.0932710339 3.0932710339 3.0932710339 3.0932710339 3.0932710339 3.0932710339 3.0932710339 3.0932710339 3.0932710339 
3.0932710339 3.0932710339 3.0932710339 3.0932710339 3.0932710339 3.0932710339 3.0932710339 3.0932710339 3.0932710339 
3.0932710339 3.0932710339 3.0932710339 3.0932710339 3.0932710339 3.0932710339 3.0932710339 3.0932710339 3.0932710339 
3.0932710339 3.0932710339 3.0932710339 3.0932710339 3.0932710339 3.0932710339 3.0932710339 3.0932710339 3.0932710339 
3.0932710339 3.0932710339 3.0932710339 3.0932710339 3.0932710339 3.0932710339 3.0932710339 3.0932710339 3.0932710339 
3.0932710339 3.0932710339 3.0932710339 3.0932710339 3.0932710339 3.0932710339 3.0932710339 3.0932710339 3.0932710339 
3.0932710339 3.0932710339 3.0932710339 3.0932710339 3.0932710339 3.0932710339 3.0932710339 3.0932710339 3.0932710339 
3.0932710339 3.0932710339 3.0932710339 3.0932710339 3.0932710339 3.0932710339 3.0932710339 3.0932710339 3.0932710339 
3.0932710339 3.0932710339 3.0932710339 3.0932710339 3.0932710339 3.0932710339 3.0932710339 3.0932710339 3.0932710339 
3.0932710339 3.0932710339 3.0932710339 3.0932710339 3.0932710339 3.0932710339 3.0932710339 3.0932710339 3.0932710339 
3.0932710339 3.0932710339 3.0932710339 3.0932710339 3.0932710339 3.0932710339 3.0932710339 3.0932710339 3.0932710339 
3.0932710339 3.0932710339 3.0932710339 3.0932710339 3.0932710339 3.0932710339 3.0932710339 3.0932710339 3.0932710339 
3.0932710339 3.0786768432 3.0786768432 3.0786768432 3.0786768432 3.0932710339 3.0932710339 3.0786768432 3.0786768432 
3.0786768432 3.0786768432 3.0932710339 3.0932710339 3.0786768432 3.0786768432 3.0786768432 3.0786768432 3.0932710339 
3.0932710339 3.0786768432 3.0786768432 3.0786768432 3.0786768432 3.0786768432 3.0932710339 3.0932710339 3.0786768432 
3.0786768432 3.0786768432 3.0786768432 3.0932710339 3.0932710339 3.0786768432 3.0786768432 3.0786768432 3.0786768432 
3.0786768432 3.0932710339 3.0932710339 3.0786768432 3.0786768432 3.0786768432 3.0786768432 3.0932710339 3.0932710339 
3.0786768432 3.0786768432 3.0786768432 3.0786768432 3.0932710339 3.0932710339 3.0932710339 3.0786768432 3.0786768432 
3.0932710339 3.0932710339 3.0786768432 3.0786768432 3.0786768432 3.0786768432 3.0932710339 3.0932710339 3.0786768432 
3.0786768432 3.0932710339 3.0932710339 3.0786768432 3.0786768432 3.0786768432 3.0932710339 3.1078652246 3.1078652246 
3.1078652246 3.1078652246 3.1078652246 3.1078652246 3.1078652246 3.1078652246 3.0932710339 3.0786768432 3.0786768432 
3.0786768432 3.0932710339 3.1078652246 3.1078652246 3.1078652246 3.0932710339 3.0786768432 3.0786768432 3.0932710339 
3.1078652246 3.1078652246 3.1078652246 3.1078652246 3.0932710339 3.0786768432 3.0786768432 3.0786768432 3.0932710339 
3.1078652246 3.1078652246 3.1078652246 3.0932710339 3.0786768432 3.0786768432 3.0786768432 3.0932710339 3.1078652246 
3.1078652246 3.1078652246 3.1078652246 3.0932710339 3.0786768432 3.0786768432 3.0932710339 3.1078652246 3.1078652246 
3.0932710339 3.0786768432 3.0786768432 3.0786768432 3.0932710339 3.0932710339 3.1078652246 3.1078652246 3.1078652246 
3.1078652246 3.0932710339 3.0786768432 3.0786768432 3.0786768432 3.0932710339 3.1078652246 3.1078652246 3.1078652246 
3.0932710339 3.0786768432 3.0786768432 3.0932710339 3.1078652246 3.1078652246 3.0932710339 3.0786768432 3.0786768432 
3.0932710339 3.1078652246 3.1078652246 3.1078652246 3.1078652246 3.0932710339 3.0786768432 3.0786768432 3.0786768432 
3.0786768432 3.0932710339 3.1078652246 3.1078652246 3.1078652246 3.0932710339 3.0786768432 3.0786768432 3.0932710339 
3.0932710339 3.1078652246 3.1078652246 3.0932710339 3.0786768432 3.0786768432 3.0932710339 3.1078652246 3.1078652246 
3.1078652246 3.0932710339 3.0786768432 3.0786768432 3.0786768432 3.0786768432 3.0932710339 3.1078652246 3.1078652246 
3.1078652246 3.1078652246 3.0932710339 3.0786768432 3.0786768432 3.0932710339 3.1078652246 3.1078652246 3.0932710339 
3.0786768432 3.0786768432 3.0932710339 3.1078652246 3.1078652246 3.1078652246 3.0932710339 3.0932710339 3.0786768432 
3.0786768432 3.0786768432 3.0932710339 3.1078652246 3.1078652246 3.1078652246 3.0932710339 3.0786768432 3.0786768432 
3.0932710339 3.1078652246 3.1078652246 3.1078652246 3.0932710339 3.0786768432 3.0786768432 3.0932710339 3.1078652246 
3.1078652246 3.0932710339 3.0786768432 3.0786768432 3.0786768432 3.0932710339 3.1078652246 3.1078652246 3.1078652246 
3.0932710339 3.0786768432 3.0786768432 3.0932710339 3.0932710339 3.1078652246 3.1078652246 3.0932710339 3.0786768432 
3.0786768432 3.0932710339 3.1078652246 3.1078652246 3.1078652246 3.0932710339 3.0786768432 3.0786768432 3.0932710339 
3.1078652246 3.1078652246 3.0932710339 3.0786768432 3.0786768432 3.0786768432 3.0932710339 3.1078652246 3.1078652246 
3.1078652246 3.0932710339 3.0786768432 3.0786768432 3.0786768432 3.0932710339 3.1078652246 3.1078652246 3.1078652246 
3.0932710339 3.0786768432 3.0786768432 3.0932710339 3.1078652246 3.1078652246 3.0932710339 3.0786768432 3.0786768432 
3.0932710339 3.1078652246 3.1078652246 3.0932710339 3.0786768432 3.0786768432 3.0932710339 3.1078652246 3.1078652246 
3.1078652246 3.0932710339 3.0786768432 3.0786768432 3.0932710339 3.1078652246 3.1078652246 3.1078652246 3.0932710339 
3.0786768432 3.0786768432 3.0932710339 3.1078652246 3.1078652246 3.0932710339 3.0786768432 3.0786768432 3.0786768432 
3.0932710339 3.0932710339 3.1078652246 3.1078652246 3.1078652246 3.0932710339 3.0786768432 3.0786768432 3.0932710339 
3.1078652246 3.1078652246 3.0932710339 3.0786768432 3.0786768432 3.0932710339 3.1078652246 3.1078652246 3.0932710339 
3.0786768432 3.0786768432 3.0932710339 3.1078652246 3.1078652246 3.1078652246 3.1078652246 3.0932710339 3.0786768432 
3.0786768432 3.0932710339 3.1078652246 3.1078652246 3.0932710339 3.0786768432 3.0786768432 3.0932710339 3.1078652246 
3.1078652246 3.0932710339 3.0786768432 3.0786768432 3.0932710339 3.0932710339 3.1078652246 3.1078652246 3.1078652246 
3.0932710339 3.0786768432 3.0786768432 3.0932710339 3.1078652246 3.1224594153 3.1224594153 3.1224594153 3.1224594153 
3.1224594153 3.1078652246 3.0932710339 3.0786768432 3.0786768432 3.0932710339 3.1078652246 3.1224594153 3.1224594153 
3.1224594153 3.1224594153 3.1224594153 3.1224594153 3.1078652246 3.0932710339 3.0786768432 3.0786768432 3.0786768432 
3.0786768432 3.0786768432 3.0786768432 3.0786768432 3.0932710339 3.1078652246 3.1224594153 3.1224594153 3.1224594153 
3.1224594153 3.1078652246 3.1078652246 3.0932710339 3.0786768432 3.0786768432 3.0786768432 3.0786768432 3.0786768432 
3.0786768432 3.0932710339 3.1078652246 3.1078652246 3.1224594153 3.1224594153 3.1224594153 3.1078652246 3.0932710339 
3.0786768432 3.0786768432 3.0786768432 3.0786768432 3.0786768432 3.0786768432 3.0640826525 3.0640826525 3.0640826525 
3.0640826525 3.0640826525 3.0640826525 3.0640826525 3.0786768432 3.0932710339 3.1078652246 3.1224594153 3.1224594153 
3.1224594153 3.1224594153 3.1078652246 3.0932710339 3.0786768432 3.0786768432 3.0786768432 3.0786768432 3.0640826525 
3.0640826525 3.0640826525 3.0640826525 3.0786768432 3.0932710339 3.1078652246 3.1224594153 3.1224594153 3.1224594153 
3.1224594153 3.1078652246 3.0932710339 3.0786768432 3.0786768432 3.0786768432 3.0786768432 3.0786768432 3.0786768432 
3.0640826525 3.0640826525 3.0640826525 3.0786768432 3.0932710339 3.1078652246 3.1078652246 3.1224594153 3.1224594153 
3.1078652246 3.0932710339 3.0786768432 3.0786768432 3.0786768432 3.0786768432 3.0786768432 3.0640826525 3.0640826525 
3.0640826525 3.0640826525 3.0786768432 3.0932710339 3.1078652246 3.1224594153 3.1224594153 3.1224594153 3.1224594153 
3.1078652246 3.0932710339 3.0786768432 3.0786768432 3.0786768432 3.0786768432 3.0640826525 3.0640826525 3.0786768432 
3.0932710339 3.1078652246 3.1224594153 3.1224594153 3.1078652246 3.0932710339 3.0786768432 3.0786768432 3.0786768432 
3.0786768432 3.0640826525 3.0640826525 3.0640826525 3.0640826525 3.0786768432 3.0932710339 3.0932710339 3.1078652246 
3.1224594153 3.1224594153 3.1224594153 3.1224594153 3.1078652246 3.1078652246 3.0932710339 3.0786768432 3.0786768432 
3.0786768432 3.0786768432 3.0786768432 3.0640826525 3.0640826525 3.0786768432 3.0932710339 3.1078652246 3.1078652246 
3.1224594153 3.1224594153 3.1078652246 3.0932710339 3.0786768432 3.0786768432 3.0786768432 3.0640826525 3.0640826525 
3.0640826525 3.0786768432 3.0932710339 3.1078652246 3.1224594153 3.1224594153 3.1224594153 3.1078652246 3.0932710339 
3.0786768432 3.0786768432 3.0786768432 3.0786768432 3.0640826525 3.0640826525 3.0640826525 3.0786768432 3.0932710339 
3.1078652246 3.1224594153 3.1224594153 3.1224594153 3.1078652246 3.0932710339 3.0786768432 3.0786768432 3.0786768432 
3.0640826525 3.0640826525 3.0640826525 3.0786768432 3.0932710339 3.1078652246 3.1224594153 3.1224594153 3.1224594153 
3.1078652246 3.0932710339 3.0786768432 3.0786768432 3.0786768432 3.0786768432 3.0640826525 3.0640826525 3.0640826525 
3.0786768432 3.0932710339 3.1078652246 3.1224594153 3.1224594153 3.1224594153 3.1078652246 3.0932710339 3.0786768432 
3.0786768432 3.0786768432 3.0786768432 3.0786768432 3.0640826525 3.0640826525 3.0786768432 3.0932710339 3.1078652246 
3.1078652246 3.1224594153 3.1224594153 3.1078652246 3.0932710339 3.0786768432 3.0786768432 3.0786768432 3.0640826525 
3.0640826525 3.0786768432 3.0932710339 3.0932710339 3.1078652246 3.1224594153 3.1224594153 3.1224594153 3.1078652246 
3.0932710339 3.0786768432 3.0786768432 3.0786768432 3.0640826525 3.0640826525 3.0786768432 3.0786768432 3.0932710339 
3.1078652246 3.1224594153 3.1224594153 3.1224594153 3.1078652246 3.0932710339 3.0786768432 3.0786768432 3.0786768432 
3.0640826525 3.0640826525 3.0786768432 3.0932710339 3.1078652246 3.1078652246 3.1224594153 3.1224594153 3.1078652246 
3.1078652246 3.0932710339 3.0786768432 3.0786768432 3.0786768432 3.0786768432 3.0640826525 3.0640826525 3.0640826525 
3.0640826525 3.0786768432 3.0932710339 3.1078652246 3.1224594153 3.1224594153 3.1224594153 3.1078652246 3.0932710339 
3.0786768432 3.0786768432 3.0786768432 3.0786768432 3.0640826525 3.0640826525 3.0786768432 3.0932710339 3.1078652246 
3.1224594153 3.1224594153 3.1224594153 3.1078652246 3.0932710339 3.0786768432 3.0786768432 3.0786768432 3.0786768432 
3.0640826525 3.0640826525 3.0786768432 3.0786768432 3.0932710339 3.1078652246 3.1078652246 3.1224594153 3.1224594153 
3.1224594153 3.1078652246 3.0932710339 3.0932710339 3.0786768432 3.0786768432 3.0786768432 3.0640826525 3.0494884618 
3.0494884618 3.0494884618 3.0640826525 3.0786768432 3.0932710339 3.1078652246 3.1224594153 3.137053606 3.137053606 
3.137053606 3.1224594153 3.1078652246 3.0932710339 3.0786768432 3.0786768432 3.0786768432 3.0640826525 3.0494884618 
3.0494884618 3.0494884618 3.0494884618 3.0494884618 3.0640826525 3.0786768432 3.0932710339 3.0932710339 3.1078652246 
3.1224594153 3.137053606 3.137053606 3.137053606 3.137053606 3.137053606 3.1224594153 3.1078652246 3.0932710339 
3.0786768432 3.0786768432 3.0786768432 3.0640826525 3.0640826525 3.0494884618 3.0494884618 3.0494884618 3.0494884618 
3.0640826525 3.0786768432 3.0932710339 3.1078652246 3.1224594153 3.1224594153 3.137053606 3.137053606 3.137053606 
3.137053606 3.1224594153 3.1078652246 3.0932710339 3.0786768432 3.0786768432 3.0786768432 3.0640826525 3.0494884618 
3.0494884618 3.0494884618 3.0640826525 3.0786768432 3.0932710339 3.1078652246 3.1078652246 3.1224594153 3.137053606 
3.137053606 3.1224594153 3.1078652246 3.0932710339 3.0786768432 3.0786768432 3.0786768432 3.0786768432 3.0786768432 
3.0640826525 3.0494884618 3.0494884618 3.0640826525 3.0786768432 3.0932710339 3.1078652246 3.1224594153 3.137053606 
3.137053606 3.137053606 3.1224594153 3.1078652246 3.0932710339 3.0786768432 3.0786768432 3.0786768432 3.0640826525 
3.0494884618 3.0494884618 3.0494884618 3.0640826525 3.0786768432 3.0932710339 3.0932710339 3.1078652246 3.1224594153 
3.1224594153 3.137053606 3.137053606 3.137053606 3.137053606 3.1224594153 3.1078652246 3.0932710339 3.0786768432 
3.0786768432 3.0786768432 3.0640826525 3.0494884618 3.0494884618 3.0494884618 3.0640826525 3.0786768432 3.0932710339 
3.1078652246 3.1078652246 3.1224594153 3.137053606 3.137053606 3.1224594153 3.1224594153 3.1078652246 3.0932710339 
3.0786768432 3.0786768432 3.0786768432 3.0786768432 3.0640826525 3.0494884618 3.0494884618 3.0494884618 3.0640826525 
3.0786768432 3.0932710339 3.1078652246 3.1224594153 3.137053606 3.137053606 3.1224594153 3.1078652246 3.0932710339 
3.0786768432 3.0786768432 3.0786768432 3.0640826525 3.0494884618 3.0494884618 3.0640826525 3.0786768432 3.0932710339 
3.1078652246 3.1224594153 3.137053606 3.137053606 3.1224594153 3.1078652246 3.0932710339 3.0786768432 3.0786768432 
3.0786768432 3.0786768432 3.0786768432 3.0786768432 3.0640826525 3.0494884618 3.0494884618 3.0494884618 3.0640826525 
3.0786768432 3.0932710339 3.1078652246 3.1224594153 3.1224594153 3.137053606 3.137053606 3.1224594153 3.1078652246 
3.0932710339 3.0786768432 3.0786768432 3.0786768432 3.0786768432 3.0640826525 3.0640826525 3.0494884618 3.0494884618 
3.0640826525 3.0786768432 3.0932710339 3.1078652246 3.1078652246 3.1224594153 3.137053606 3.137053606 3.137053606 
3.1224594153 3.1078652246 3.0932710339 3.0786768432 3.0786768432 3.0786768432 3.0786768432 3.0640826525 3.0494884618 
3.0348942711 3.0348942711 3.0348942711 3.0348942711 3.0494884618 3.0494884618 3.0640826525 3.0786768432 3.0786768432 
3.0932710339 3.0932710339 3.1078652246 3.1224594153 3.137053606 3.137053606 3.1224594153 3.1078652246 3.0932710339 
3.0932710339 3.0786768432 3.0640826525 3.0640826525 3.0640826525 3.0640826525 3.0640826525 3.0640826525 3.0786768432 
3.0786768432 3.0786768432 3.0786768432 3.0786768432 3.0640826525 3.0494884618 3.0348942711 3.0348942711 3.0348942711 
3.0348942711 3.0494884618 3.0640826525 3.0640826525 3.0786768432 3.0932710339 3.1078652246 3.1224594153 3.137053606 
3.137053606 3.137053606 3.1224594153 3.1078652246 3.0932710339 3.0786768432 3.0640826525 3.0640826525 3.0640826525 
3.0786768432 3.0786768432 3.0786768432 3.0786768432 3.0786768432 3.0640826525 3.0494884618 3.0348942711 3.0348942711 
3.0348942711 3.0348942711 3.0494884618 3.0640826525 3.0786768432 3.0932710339 3.1078652246 3.1224594153 3.1224594153 
3.137053606 3.137053606 3.1224594153 3.1078652246 3.0932710339 3.0786768432 3.0786768432 3.0640826525 3.0640826525 
3.0640826525 3.0786768432 3.0786768432 3.0786768432 3.0640826525 3.0494884618 3.0348942711 3.0348942711 3.0494884618 
3.0640826525 3.0786768432 3.0932710339 3.1078652246 3.1224594153 3.137053606 3.137053606 3.137053606 3.1224594153 
3.1224594153 3.1078652246 3.0932710339 3.0786768432 3.0640826525 3.0640826525 3.0640826525 3.0640826525 3.0786768432 
3.0786768432 3.0786768432 3.0640826525 3.0494884618 3.0348942711 3.0348942711 3.0348942711 3.0494884618 3.0640826525 
3.0640826525 3.0786768432 3.0932710339 3.1078652246 3.1224594153 3.137053606 3.137053606 3.1224594153 3.1078652246 
3.0932710339 3.0786768432 3.0640826525 3.0640826525 3.0786768432 3.0786768432 3.0786768432 3.0640826525 3.0494884618 
3.0494884618 3.0348942711 3.0203000804 3.0203000804 3.0203000804 3.0203000804 3.0348942711 3.0348942711 3.0494884618 
3.0640826525 3.0786768432 3.0932710339 3.1078652246 3.1224594153 2.9473291268 2.9473291268 2.9619233175 2.9619233175 
2.9765175082 2.9765175082 2.991111699 2.991111699 3.0057058897 3.0057058897 3.0203000804 3.0203000804 3.0348942711 
3.0348942711 3.0494884618 3.0494884618 3.0640826525 3.0640826525 3.0786768432 3.0786768432 3.0932710339 3.0932710339 
3.1078652246 3.1078652246 3.1224594153 3.1224594153 2.9473291268 2.9619233175 2.9765175082 2.991111699 3.0057058897 
3.0203000804 3.0348942711 3.0494884618 3.0640826525 3.0786768432 3.0932710339 3.1078652246 3.1224594153 2.9473291268 
2.9619233175 2.9765175082 2.991111699 3.0057058897 3.0203000804 3.0348942711 3.0494884618 3.0640826525 3.0786768432 
3.0932710339 3.1078652246 3.1224594153 3.137053606 2.9473291268 2.9619233175 2.9765175082 2.991111699 3.0057058897 
3.0203000804 3.0348942711 3.0494884618 3.0640826525 3.0786768432 3.0932710339 3.1078652246 3.1224594153 3.137053606 
2.9473291268 2.9619233175 2.9765175082 2.991111699 3.0057058897 3.0203000804 3.0348942711 3.0494884618 3.0640826525 
3.0786768432 3.0932710339 3.1078652246 3.1224594153 3.137053606 2.9473291268 2.9619233175 2.9765175082 2.991111699 
3.0057058897 3.0203000804 3.0348942711 3.0494884618 3.0640826525 3.0786768432 3.0932710339 3.1078652246 3.1224594153 
3.137053606 2.9473291268 2.9619233175 2.9765175082 2.991111699 3.0057058897 3.0203000804 3.0348942711 3.0494884618 
3.0640826525 3.0786768432 3.0932710339 3.1078652246 3.1224594153 3.137053606 2.9473291268 2.9619233175 2.9765175082 
2.991111699 3.0057058897 3.0203000804 3.0348942711 3.0494884618 3.0640826525 3.0786768432 3.0932710339 3.1078652246 
3.1224594153 3.137053606 2.9473291268 2.9619233175 2.9765175082 2.991111699 3.0057058897 3.0203000804 3.0348942711 
3.0494884618 3.0640826525 3.0786768432 3.0932710339 3.1078652246 3.1224594153 3.137053606 2.9473291268 2.9619233175 
2.9765175082 2.991111699 3.0057058897 3.0203000804 3.0348942711 3.0494884618 3.0640826525 3.0786768432 3.0932710339 
3.1078652246 3.1224594153 3.137053606 3.137053606 3.1224594153 3.1078652246 3.0932710339 3.0786768432 3.0640826525 
3.0640826525 3.0786768432 3.0786768432 3.0640826525 3.0494884618 3.0348942711 3.0203000804 3.0203000804 3.0203000804 
3.0348942711 3.0494884618 3.0640826525 3.0786768432 3.0932710339 3.1078652246 2.9473291268 2.9473291268 2.9619233175 
2.9619233175 2.9765175082 2.9765175082 2.991111699 2.991111699 3.0057058897 3.0057058897 3.0203000804 3.0203000804 
3.0348942711 3.0348942711 3.0494884618 3.0494884618 3.0640826525 3.0640826525 3.0786768432 3.0786768432 3.0932710339 
3.0932710339 3.1078652246 3.1078652246 2.9473291268 2.9619233175 2.9765175082 2.991111699 3.0057058897 3.0203000804 
3.0348942711 3.0494884618 3.0640826525 3.0786768432 3.0932710339 3.1078652246 2.9473291268 2.9619233175 2.9765175082 
2.991111699 3.0057058897 3.0203000804 3.0348942711 3.0494884618 3.0640826525 3.0786768432 3.0932710339 3.1078652246 
2.9473291268 2.9619233175 2.9765175082 2.991111699 3.0057058897 3.0203000804 3.0348942711 3.0494884618 3.0640826525 
3.0786768432 3.0932710339 3.1078652246 3.1224594153 2.9473291268 2.9619233175 2.9765175082 2.991111699 3.0057058897 
3.0203000804 3.0348942711 3.0494884618 3.0640826525 3.0786768432 3.0932710339 3.1078652246 3.1224594153 2.9473291268 
2.9619233175 2.9765175082 2.991111699 3.0057058897 3.0203000804 3.0348942711 3.0494884618 3.0640826525 3.0786768432 