# vtk DataFile Version 4.2
vtk output
ASCII
DATASET UNSTRUCTURED_GRID
POINTS 1740 double
2144.07 -94.44003 0 2911 0 0 16.54298 -37.82236 0 
5.09149 -21.30132 0 1.27433 -10.75385 0 0 0 0 
2.54575 15.14293 0 6.36291 23.76126 0 14.00014 34.89063 0 
30.50239 50.70793 0 33.39435 -52.93479 0 2050.91 -103.7862 0 
60.1465 -69.72165 0 88.83633 -83.2817 0 118.7656 -94.71113 0 
153.4168 -105.7022 0 199.5806 -117.771 0 261.4466 -130.7139 0 
345.846 -144.1892 0 460.3522 -157.0592 0 608.4185 -167.1903 0 
783.2313 -172.4016 0 941.0559 -172.4533 0 1063.409 -170.1096 0 
1164.153 -166.8746 0 1263.449 -162.682 0 1375.468 -156.8941 0 
1513.293 -148.414 0 1665.281 -137.5317 0 1791.864 -127.3721 0 
2195.451 -89.09491 0 2273.924 -80.67077 0 2383.731 -68.3513 0 
2517.64 -52.47337 0 2649.227 -35.9232 0 2740.773 -23.82991 0 
2804.387 -15.13419 0 2848.802 -8.916218 0 2881.944 -4.196067 0 
56.61447 67.79801 0 84.09687 81.25172 0 112.4783 92.48395 0 
142.1748 102.3504 0 174.8563 111.6168 0 213.124 120.8806 0 
260.3759 130.5151 0 324.6539 141.1779 0 418.1422 152.9178 0 
535.6656 162.9871 0 690.9154 170.4255 0 902.6513 172.7852 0 
1100.32 169.0517 0 1270.99 162.3262 0 1462.794 151.6837 0 
1631.287 140.0952 0 1747.993 131 0 1922.788 115.9027 0 
2069.56 101.951 0 2128.804 96.0021 0 2297.147 78.11721 0 
2414.379 64.80104 0 2554.023 47.99319 0 2673.693 32.73885 0 
2757.97 21.50315 0 2814.297 13.7575 0 2852.02 8.460961 0 
2882.272 4.148909 0 1791.052 127.4402 0 1366.894 157.3738 0 
1444.38 -152.8302 0 1547.039 146.1296 0 1589.287 -143.1614 0 
1878.731 119.8675 0 1997.072 108.9828 0 1185.654 166.0472 0 
1882.536 -119.5292 0 1971.323 -111.4145 0 1684.777 136.0292 0 
2099.317 -98.9855 0 2234.809 84.9091 0 2181.695 90.53914 0 
1728.573 -132.5703 0 1718.815 133.3509 0 1834.825 123.7132 0 
1960.305 112.4444 0 2033.69 105.4648 0 2099.184 98.99892 0 
2214.291 -76.873972281 396.8421 2955.512 11.34282681 396.8421 158.0786 -24.221858374 396.8421 
147.0109 -8.3401131077 396.8421 143.3217 1.815688642 396.8421 142.09 12.1826193 396.8421 
144.5505 26.80125082 396.8421 148.2398 35.132264219 396.8421 155.621 45.903098443 396.8421 
171.5701 61.236095058 396.8421 174.3652 -38.719932162 396.8421 2124.254 -85.65409923 396.8421 
200.2206 -54.788431316 396.8421 227.9488 -67.737984289 396.8421 256.8748 -78.629774136 396.8421 
290.3647 -89.081724988 396.8421 334.981 -100.5300564 396.8421 394.7733 -112.76806542 396.8421 
476.3434 -125.45249703 396.8421 587.0114 -137.48367384 396.8421 730.1145 -146.8334753 396.8421 
899.0676 -151.46651249 396.8421 1051.602 -151.25769622 396.8421 1169.853 -148.85885928 396.8421 
1267.221 -145.66496249 396.8421 1363.188 -141.58363056 396.8421 1471.452 -135.99982671 396.8421 
1604.657 -127.87815693 396.8421 1751.55 -117.51922695 396.8421 1873.891 -107.8921896 396.8421 
2263.949 -71.858970318 396.8421 2339.792 -63.963328506 396.8421 2445.918 -52.432367834 396.8421 
2575.338 -37.592775177 396.8421 2702.515 -22.144880445 396.8421 2790.992 -10.866437189 396.8421 
2852.473 -2.7602306057 396.8421 2895.4 3.0347444497 396.8421 2927.431 7.4331553969 396.8421 
196.807 77.838472531 396.8421 223.3682 90.936186453 396.8421 250.7983 101.8917688 396.8421 
279.4994 111.53198659 396.8421 311.0855 120.60180285 396.8421 348.0705 129.68626681 396.8421 
393.7383 139.15560804 396.8421 455.8617 149.66681072 396.8421 546.2162 161.29256165 396.8421 
659.8003 171.340002 396.8421 809.846 178.88360858 396.8421 1014.485 181.53045999 396.8421 
1205.528 178.14128186 396.8421 1370.477 171.73521906 396.8421 1555.851 161.45004509 396.8421 
1718.696 150.1589262 396.8421 1831.49 141.25586509 396.8421 2000.426 126.41989055 396.8421 
2142.278 112.6605145 396.8421 2199.537 106.78201961 396.8421 2362.236 89.074073098 396.8421 
2475.539 75.861374324 396.8421 2610.501 59.156770895 396.8421 2726.16 43.974948144 396.8421 
2807.613 32.782353523 396.8421 2862.05 25.06218189 396.8421 2898.509 19.781318512 396.8421 
2927.749 15.481080856 396.8421 1873.106 137.76354485 396.8421 1463.165 166.96298327 396.8421 
1538.054 -132.10087944 396.8421 1637.272 156.04721841 396.8421 1678.104 -122.87098645 396.8421 
1957.846 130.32203372 396.8421 2072.22 119.60059558 396.8421 1288 175.2955063 396.8421 
1961.524 -100.48253439 396.8421 2047.334 -92.832524546 396.8421 1770.393 146.18265844 396.8421 
2171.038 -81.1423229 396.8421 2301.989 95.80439392 396.8421 2250.655 101.37832406 396.8421 
1812.721 -112.81338102 396.8421 1803.29 143.55991118 396.8421 1915.411 134.1030298 396.8421 
2036.686 123.01311278 396.8421 2107.61 116.129699 396.8421 2170.909 109.74419737 396.8421 
2284.511 -61.081272519 793.6842 3000.027 21.80008396 793.6842 299.6143 -11.958850452 793.6842 
288.9304 3.3093862753 793.6842 285.3691 13.086433202 793.6842 284.1801 23.076974532 793.6842 
286.5551 37.181819542 793.6842 290.1167 45.229218703 793.6842 297.2417 55.643684438 793.6842 
312.6379 70.490409266 793.6842 315.336 -25.872560891 793.6842 2197.597 -69.368705697 793.6842 
340.2947 -41.264026409 793.6842 367.0612 -53.643282623 793.6842 394.9839 -64.03656644 793.6842 
427.3123 -73.99209921 793.6842 470.3812 -84.873584183 793.6842 528.0998 -96.473520836 793.6842 
606.8411 -108.4502361 793.6842 713.6708 -119.74218784 793.6842 851.8104 -128.41801774 793.6842 
1014.904 -132.56998234 793.6842 1162.147 -132.16183474 793.6842 1276.298 -129.73805045 793.6842 
1370.288 -126.5990102 793.6842 1462.927 -122.63268271 793.6842 1567.436 -117.24603402 793.6842 
1696.021 -109.45740398 793.6842 1837.82 -99.573105159 793.6842 1955.917 -90.421560651 793.6842 
2332.447 -56.352643933 793.6842 2405.659 -48.914174382 793.6842 2508.105 -38.062938847 793.6842 
2633.037 -24.114983305 793.6842 2755.801 -9.6103978583 793.6842 2841.209 0.97221623426 793.6842 
2900.561 8.5755815468 793.6842 2941.997 14.010062117 793.6842 2972.917 18.134362096 793.6842 
336.9995 86.595768433 793.6842 362.6396 99.324674652 793.6842 389.1182 109.9888305 793.6842 
416.8239 119.38665314 793.6842 447.3145 128.24160289 793.6842 483.0167 137.12508754 793.6842 
527.1009 146.40257683 793.6842 587.0697 156.72666309 793.6842 674.2905 168.18914389 793.6842 
783.9349 178.15811249 793.6842 928.7766 185.7417615 793.6842 1126.317 188.60695031 793.6842 
1310.735 185.5200116 793.6842 1469.963 179.41518302 793.6842 1648.908 169.487851 793.6842 
1806.105 158.51426146 793.6842 1914.987 149.82805865 793.6842 2078.064 135.30803158 793.6842 
2214.996 121.80362373 793.6842 2270.269 116.0252081 793.6842 2427.326 98.592915312 793.6842 
2536.699 85.5653089 793.6842 2666.98 69.075502915 793.6842 2778.628 54.074517233 793.6842 
2857.255 43.008526776 793.6842 2909.806 35.373046561 793.6842 2945.001 30.149095893 793.6842 
2973.224 25.894684602 793.6842 1955.16 146.41460707 793.6842 1559.437 174.82050501 793.6842 
1631.729 -113.50155856 793.6842 1727.505 164.24406247 793.6842 1766.921 -104.67400872 793.6842 
2036.96 139.13164359 793.6842 2147.368 128.61896958 793.6842 1390.347 182.8216944 793.6842 
2040.511 -83.395079477 793.6842 2123.346 -76.153650153 793.6842 1856.009 154.6378644 793.6842 
2242.759 -65.108641844 793.6842 2369.167 105.22260003 793.6842 2319.614 110.70944814 793.6842 
1896.869 -95.096236749 793.6842 1887.765 152.0782846 793.6842 1995.998 142.83366447 793.6842 
2113.066 131.96739821 793.6842 2181.531 125.21139894 793.6842 2242.634 118.93754825 793.6842 
2354.732 -47.007747813 1190.526 3044.539 31.331721147 1190.526 441.15 -1.2423216222 1190.526 
430.8497 13.432103807 1190.526 427.4164 22.83989065 1190.526 426.2701 32.461425082 1190.526 
428.5601 46.059059381 1190.526 431.9934 53.824534793 1190.526 438.8627 63.882569988 1190.526 
453.7057 78.238317156 1190.526 456.3069 -14.595315992 1190.526 2270.94 -54.872781336 1190.526 
480.3688 -29.342722537 1190.526 506.1737 -41.183990783 1190.526 533.0934 -51.110331037 1190.526 
564.26 -60.60390601 1190.526 605.7815 -70.961576775 1190.526 661.4265 -81.976603802 1190.526 
737.3385 -93.311127435 1190.526 840.33 -103.9402697 1190.526 973.5064 -112.02148633 1190.526 
1130.74 -115.7592411 1190.526 1272.693 -115.18770145 1190.526 1382.742 -112.75166681 1190.526 
1473.356 -109.66829426 1190.526 1562.666 -105.80925825 1190.526 1663.42 -100.6010409 1190.526 
1787.385 -93.108806078 1190.526 1924.09 -83.641259312 1190.526 2037.944 -74.903604711 1190.526 
2400.946 -42.524118607 1190.526 2471.527 -35.476268039 1190.526 2570.292 -25.204672418 1190.526 
2690.735 -12.015736042 1190.526 2809.091 1.686719591 1190.526 2891.43 11.677989816 1190.526 
2948.647 18.85405112 1190.526 2988.597 23.982081694 1190.526 3018.403 27.873401523 1190.526 
477.1918 93.835263727 1190.526 501.9109 106.18148406 1190.526 527.4382 116.53913623 1190.526 
554.1485 125.67844399 1190.526 583.5435 134.30075445 1190.526 617.963 142.9629328 1190.526 
660.4633 152.02402959 1190.526 718.2775 162.12917728 1190.526 802.3645 173.38593348 1190.526 
908.0698 183.22979958 1190.526 1047.707 190.80410173 1190.526 1238.151 193.84358657 1190.526 
1415.942 191.04212067 1190.526 1569.449 185.24290952 1190.526 1741.965 175.69948335 1190.526 
1893.514 165.0844456 1190.526 1998.484 156.65346408 1190.526 2155.702 142.52200652 1190.526 
2287.714 129.34749143 1190.526 2341.001 123.70301688 1190.526 2492.415 106.65387158 1190.526 
2597.858 93.896078105 1190.526 2723.46 77.732361339 1190.526 2831.095 63.016653459 1190.526 
2906.899 52.155802083 1190.526 2957.56 44.659867844 1190.526 2991.49 39.53057474 1190.526 
3018.699 35.352840888 1190.526 2037.214 153.33518462 1190.526 1655.708 180.83610693 1190.526 
1725.403 -96.994565064 1190.526 1817.738 170.63311873 1190.526 1855.738 -88.522488579 1190.526 
2116.075 146.24717009 1190.526 2222.516 135.99952694 1190.526 1492.694 188.49130895 1190.526 
2119.498 -68.208748954 1190.526 2199.357 -61.319512698 1190.526 1941.625 161.32439397 1190.526 
2314.479 -50.828659774 1190.526 2436.346 113.14119231 1190.526 2388.573 118.50722812 1190.526 
1981.017 -79.363925951 1190.526 1972.24 158.8394175 1190.526 2076.584 149.85132125 1190.526 
[...]
POINT_DATA 1740
FIELD FieldData 1
Pressure 1 1740 double
3.1044526709 3.0189518352 3.0092594945 2.9862523303 2.9786186916 2.9578247348 2.970767066 2.9879569204 3.0191338911 
3.0329385778 3.0105557725 3.1081982728 3.0338362275 3.0481080851 3.0649968851 3.0634458368 3.0809316167 3.0860953136 
3.1060797662 3.1115717773 3.1292376885 3.1371405694 3.1395008746 3.1437723509 3.1398169347 3.1358838836 3.1325395462 
3.1291914576 3.1234634502 3.1184801491 3.1016974058 3.0984629439 3.0926703176 3.0848575462 3.073851718 3.0640123616 
3.0538001345 3.04555181 3.0361427487 3.0689840422 3.0813418864 3.0939816983 3.1074403888 3.1138583146 3.1204878904 
3.1280644947 3.1359871154 3.152085482 3.164843991 3.1828246337 3.1947273318 3.2012082624 3.2079916778 3.2142629733 
3.2181085491 3.2209667015 3.2221015532 3.2460153832 3.1063675059 3.0882580136 3.082803871 3.0738329644 3.0642351043 
3.0542449809 3.0436543921 3.0363692891 3.0343999098 3.2210915331 3.211583531 3.131633597 3.2149993014 3.1265581252 
3.2217866572 3.2237414082 3.2074832505 3.1146887075 3.1112937271 3.2184749908 3.1064064806 3.0900367289 3.0885918631 
3.1209674196 3.2201302035 3.2220416991 3.2233513787 3.2227486909 3.2018195297 3.1014412538 3.022869323 3.0270230896 
3.0004567216 3.0076767283 2.9856472891 2.9944671967 3.0066952433 3.0344771583 3.0527761913 3.0343986404 3.1056826352 
3.0547679557 3.0672906997 3.0809361012 3.084839314 3.0999864228 3.109039655 3.1218792916 3.1270314163 3.1361363066 
3.1405481176 3.1426126865 3.1426666705 3.1391724005 3.1346711293 3.1301318485 3.1257047237 3.1205567863 3.1159336419 
3.0989458419 3.0951222226 3.0893427791 3.0818149319 3.0707302532 3.0608898464 3.0509557271 3.0435524889 3.0265963689 
3.0859311612 3.1069726734 3.1192704433 3.1276329766 3.1370142667 3.1415926527 3.1472367756 3.1581263038 3.1701181163 
3.1791505607 3.1894827182 3.1980706068 3.2043054304 3.2111593442 3.2148567884 3.2182682246 3.2200730963 3.2229726782 
3.1341792 3.0863950748 3.087134038 3.0819593479 3.0738277979 3.0641349882 3.0544977269 3.0443785328 3.037945115 
3.0393832027 3.2209096168 3.2135046366 3.1289142872 3.216940675 3.1230481471 3.2223692276 3.2235199817 3.2089989215 
3.1119137659 3.1084361083 3.219038037 3.1038601083 3.0886197255 3.0850999815 3.1185081301 3.2196521334 3.2216974252 
3.2239220033 3.2304217163 3.0804994823 3.0993832606 3.0225552359 3.0276843253 3.0001398897 3.002321101 2.9841973922 
2.9973878063 3.0110365652 3.039464731 3.0606487056 3.0426237915 3.1034198981 3.0575108116 3.076434233 3.0946081876 
3.1012180963 3.1132626457 3.1211382098 3.1337685982 3.1394399815 3.1457190811 3.1474724055 3.1467405688 3.1444722551 
3.139301005 3.1337011785 3.129206953 3.1236879227 3.1187718152 3.1139483138 3.0970239714 3.0934070969 3.0874233309 
3.0799912261 3.0686959393 3.0586544462 3.0491266753 3.0420754692 3.0272499725 3.0936431234 3.1154724277 3.1341859276 
3.1432959933 3.1537224726 3.1626544246 3.1725977174 3.1769463486 3.1859993709 3.195931679 3.2022619016 3.2087226443 
3.2110339051 3.2177642123 3.2214483459 3.2220098305 3.2230987274 3.2257953253 3.0835879663 3.0904759358 3.0862233588 
3.0815533307 3.0738220955 3.0638281232 3.0545198259 3.04498114 3.0379609181 3.0404013103 3.2239997815 3.2195561841 
3.1268605073 3.2214829996 3.1210682924 3.2249890866 3.2218523456 3.214716467 3.1100419296 3.1063457865 3.2220039214 
3.1018743171 3.088859839 3.0907658003 3.116676286 3.2224446921 3.2250597592 3.2264305191 3.1423245313 3.0902901812 
3.0979362908 3.0231954677 3.0284303327 3.0004717087 3.0030319116 2.9821335242 2.9931115982 3.0074090439 3.0401919954 
3.0617189626 3.0419654882 3.1020768978 3.0623022638 3.0795719169 3.0981923273 3.1069752037 3.1188056867 3.1274445047 
3.1388816293 3.1452116666 3.1513283158 3.1517771187 3.1495563214 3.1458135295 3.1398920827 3.1341641212 3.128891829 
3.1231080537 3.1175313911 3.1125868754 3.0957576097 3.0921118429 3.0864543016 3.0789195804 3.0677824359 3.0576777392 
3.0486498558 3.0416436412 3.0276854072 3.0977574593 3.1213830604 3.1368649569 3.1493772386 3.157040609 3.1682306069 
3.1811245827 3.1911018834 3.1992995685 3.2089713128 3.2151473595 3.2206033018 3.2213493571 3.2269521095 3.2292185691 
3.2291348866 3.229849628 3.2318296717 3.0898594358 3.0888269941 3.0866726475 3.0823519891 3.0749094715 3.065000786 
3.0556109706 3.046314291 3.0390953018 3.0413693901 3.2302778408 3.2284049528 3.1263667009 3.2293202607 3.1202419177 
3.2306671776 3.15985324 3.2243450845 3.1088235974 3.1050201727 3.2292153523 3.1002962917 3.0882335205 3.0884910558 
3.1151741266 3.2292512521 3.2306464158 3.2333596067 3.0877188567 3.0913838635 3.0969988507 3.0235164722 3.0306355074 
3.0014238332 3.008805157 2.9866838365 2.9950741973 3.0084409227 3.0423383166 3.0631821372 3.0430984307 3.1010048728 
3.0646497905 3.0818128902 3.0985340821 3.1081896145 3.1206722848 3.1309314554 3.1415467252 3.1485737823 3.1546095521 
3.1540748633 3.1505904072 3.1457386953 3.1392031408 3.1333204727 3.1277136325 3.122226956 3.1164896392 3.1113750181 
3.0947951377 3.0910781156 3.0856517547 3.0780757006 3.0673255044 3.0573170655 3.0485827329 3.0413481712 3.0284102443 
3.0992839438 3.1234173775 3.1385945418 3.1520857498 3.1613413058 3.1728374124 3.1847241377 3.1906779722 3.2022381888 
3.2149474787 3.2245486104 3.2291034852 3.2310948104 3.2359265714 3.2375665429 3.2368948369 3.2373347551 3.2442051749 
3.0871334247 3.0888013252 3.0870681159 3.0825213452 3.0750300738 3.0652483723 3.0560047772 3.0467340794 3.0395228887 
3.0419573316 3.237578862 3.2373133362 3.1254864666 3.2372737145 3.1192007686 3.2374390859 3.0775034018 3.2338942252 
3.1077464604 3.1040052028 3.2367953152 3.0990445835 3.0886232257 3.0888212609 3.1139356751 3.2368929242 3.2378521775 
3.135526794 3.0835044692 3.0884342883 3.0961559482 3.0227711342 3.031857512 3.0029587274 3.0106735502 2.9876698587 
2.9965562833 3.0098967552 3.0433659248 3.0651592773 3.044094198 3.1000287586 3.0659448871 3.0837545968 3.0997507281 
3.1097842121 3.1223683862 3.1333234977 3.14415128 3.1511847873 3.1575911 3.1558678772 3.1512419299 3.1454598187 
3.1384294709 3.1324140781 3.1266915806 3.1211980832 3.1154356995 3.1102677129 3.0939116534 3.0901442356 3.084896398 
3.0772974103 3.0668445494 3.0569488349 3.0484301953 3.0409756147 3.0292791589 3.1008110151 3.1252953585 3.1405280964 
3.1540339059 3.1633171459 3.1753257686 3.1885165293 3.1959649134 3.2077768545 3.2201643088 3.2312186623 3.237163253 
3.2396817944 3.2455994557 3.2466168532 3.2452045756 3.2452007388 3.2351916984 3.0857342174 3.0862577367 3.0848651644 
3.0801850567 3.0727514478 3.063330171 3.054342669 3.0453171793 3.0380240123 3.0405177636 3.2452027764 3.2459925366 
3.1244735793 3.2461025734 3.1182297708 3.2445896589 3.0836375824 3.2426630904 3.1067106645 3.10299726 3.2449027552 
3.0981652977 3.086553311 3.0865622534 3.1127840119 3.2448151324 3.24548879 3.0777966161 3.0844827466 3.0860883669 
3.0954205707 3.0216464202 3.0322943774 3.0032043769 3.0103298915 2.9872955579 2.9964245421 3.0099327243 3.0434453122 
3.0656514871 3.0447902819 3.0992753302 3.0667925646 3.0849162689 3.1008798079 3.1111782217 3.1238739636 3.1352792215 
3.1461562513 3.1533453586 3.1597702826 3.1573121064 3.151748929 3.1452607947 3.1379683581 3.1319571317 3.1261611126 
3.1205018433 3.1147213968 3.109520397 3.0931825897 3.0894092093 3.0843134553 3.0767360889 3.0665109052 3.056581725 
3.0482188493 3.0405974945 3.0299953301 3.1012768224 3.1260513947 3.1415941158 3.1551826807 3.1647846264 3.176869281 
3.1899596348 3.1981361364 3.2103701856 3.2240107457 3.2357671036 3.2429173423 3.2469527177 3.2532851369 3.2546930312 
3.2542281782 3.2536712806 3.1068906334 3.0837419977 3.0831949093 3.0810125622 3.0765463698 3.0695302883 3.0604420449 
3.0516120486 3.043021642 3.0356909346 3.0384469111 3.2534175709 3.2547555066 3.1238756452 3.2549281751 3.1175345498 
3.2508142105 3.0814070108 3.2504717027 3.1059821879 3.1022753872 3.253741045 3.0972989696 3.0828823854 3.0828212083 
3.1119608202 3.2533454849 3.2536911538 3.0844608819 3.0827252629 3.0836536011 3.0949819907 3.0210252178 3.0327671498 
3.0034735989 3.0104561445 2.9875662116 2.9964800595 3.0099245641 3.0435178103 3.0658213376 3.0453718021 3.0989240955 
3.0674528426 3.0855768306 3.1015257969 3.1120633528 3.1249732004 3.1367880319 3.1476399801 3.1549648254 3.161557009 
3.1585705242 3.1522067105 3.1452968272 3.1378633331 3.131807745 3.1259262121 3.1200692089 3.1143847329 3.1090841863 
3.0927417529 3.0889589228 3.0839985554 3.0763793226 3.0663216664 3.0562313348 3.0479836515 3.0402726806 3.0303869804 
3.1014591709 3.1263785151 3.1421896573 3.1558280273 3.165541741 3.1776723632 3.1907333185 3.1995515583 3.2119626586 
3.2260469162 3.238433696 3.2470304621 3.2523084755 3.2596791389 3.2624483941 3.2620089794 3.2618097506 3.1111455962 
3.0823039604 3.0814637011 3.0784979344 3.0741990924 3.0675366854 3.0585062254 3.0496977163 3.0414541492 3.0341402319 
3.0368098701 3.2622271369 3.2614656048 3.123463537 3.2623773376 3.1171748662 3.2595201486 3.080902334 3.2562442589 
3.1055670371 3.1019626989 3.2618039311 3.096796253 3.080348046 3.0808114038 3.1115244955 3.2614617182 3.2623131348 
3.0855387447 3.0814584695 3.0820548028 3.0946917066 3.020935475 3.0332358266 3.0037934892 3.0107182874 2.9879382212 
2.9967525324 3.0101850088 3.0437574017 3.0661368504 3.0458885327 3.0985593089 3.0679325143 3.0863706237 3.1023144194 
3.113089793 3.126045826 3.1381476576 3.1490086079 3.1565546512 3.1632772059 3.1599241847 3.1528658771 3.1456513254 
3.1380216993 3.1318701939 3.1259636955 3.1202674081 3.1144279604 3.1090107401 3.0924596572 3.0887161884 3.0838436118 
3.0761703007 3.0662876791 3.0561014536 3.0479165754 3.0401645988 3.0306192098 3.101763264 3.1267096127 3.1426779437 
3.156314287 3.1661081255 3.1782427035 3.1911728269 3.2003734217 3.2129969467 3.2273092592 3.2399816741 3.2494423583 
3.2557999872 3.2638016013 3.2671924054 3.2679651792 3.2687481529 3.1191437618 3.080290848 3.079906828 3.0770375685 
3.0728593748 3.066417952 3.0574546291 3.0487067247 3.0406377903 3.0334338257 3.0358831039 3.2687652616 3.2661353414 
3.1237041061 3.2684103367 3.1172940605 3.2666006561 3.0786693041 3.2601565259 3.105463781 3.1019067484 3.2682664717 
3.0964486627 3.0788267658 3.0791527353 3.1114746739 3.2681847953 3.2684649555 3.0832491222 3.079301778 3.0803389095 
3.0945882095 3.0210439919 3.0336244255 3.0040663278 3.0110302085 2.9882989806 2.9970344282 3.0104900047 3.0440678229 
3.0665224577 3.0462519826 3.0985196213 3.0682657733 3.086829374 3.1029164421 3.1139015303 3.1269390987 3.1392653074 
3.1502604113 3.1580739666 3.1650884168 3.1615261274 3.1539105684 3.1463905386 3.1385417239 3.1323209898 3.1263126717 
3.1205418842 3.114516123 3.1090721337 3.0924291305 3.0886837248 3.0838357647 3.0761473275 3.0663571997 3.0561302744 
3.047990094 3.0402173114 3.030998182 3.1021569363 3.1271019965 3.1431378227 3.1567344232 3.1665917388 3.1787015997 
3.1915160556 3.2009690476 3.2137497161 3.2281570774 3.2409690007 3.2506812699 3.2576833726 3.2663586069 3.2702301878 
3.2718821117 3.2728665118 3.1290424111 3.0774296454 3.0773962335 3.0754465243 3.0713885591 3.0651686494 3.0561597459 
3.0475750525 3.0397144577 3.0326954666 3.0349261091 3.2733154556 3.2689452232 3.1240072091 3.2716379331 3.1175309698 
3.2719188914 3.0760819727 3.2623853916 3.1056066427 3.1019776513 3.272421874 3.096302848 3.0770273305 3.0769936185 
3.1114185176 3.2724969014 3.2734085644 3.0801582691 3.0764822079 3.0776553495 3.0947710185 3.0210337135 3.0339370318 
3.0042445335 3.0112499337 2.9886864445 2.9973048195 3.0107963769 3.0444508626 3.066929371 3.0464137005 3.0987894913 
3.0684346531 3.0870966 3.1032968928 3.1144808604 3.1275968117 3.1401013027 3.1513485475 3.159528423 3.1669495938 
3.1633313301 3.1553167188 3.1474408636 3.1393853673 3.1330522019 3.1269111072 3.1210446265 3.1148108501 3.1093007442 
3.0926276271 3.0888541959 3.0839951465 3.0762702105 3.0665211552 3.0562585791 3.0481229774 3.0403287777 3.0313917171 
3.1026206627 3.1275277421 3.1436501188 3.1572003595 3.1670824395 3.1791587753 3.1918476471 3.2014770326 3.2143890728 
3.2287213211 3.241643494 3.2514626165 3.2586295001 3.2677943403 3.2718367692 3.273980108 3.2753976096 3.1401511033 
3.0753606091 3.0750520875 3.0738941085 3.0698197607 3.0636072193 3.0545557787 3.0460219572 3.0383696865 3.031573956 
3.0335220144 3.2761364633 3.2705868443 3.1245373252 3.2735936428 3.1179526616 3.2753050363 3.0747029121 3.2634356285 
3.1058907613 3.102341016 3.2747253297 3.0964749624 3.0753171656 3.075100658 3.1116932165 3.2749243674 3.2765382195 
3.0786897426 3.075379619 3.0755036986 3.0952012299 3.0207622636 3.0341481399 3.0043080486 3.011285136 2.9890802089 
2.9976108159 3.011142746 3.0449295111 3.0673829855 3.0464878363 3.0993047498 3.0684296398 3.0870706226 3.1034502221 
3.1148513922 3.1280176134 3.1406585343 3.152388701 3.1608449793 3.1687334148 3.1652729207 3.1570388096 3.14874014 
3.1404673507 3.1339359042 3.1276624406 3.1217502026 3.1155163356 3.1098829571 3.0930454373 3.0892060981 3.0843001505 
3.0765181303 3.0667456473 3.056440829 3.0482874342 3.0404755095 3.0316259705 3.1032122463 3.1280340872 3.1442848543 
3.1578095654 3.1676978484 3.1797385943 3.1923015407 3.2020382389 3.215071672 3.229248366 3.2421806079 3.2521160952 
3.2591885751 3.2682957926 3.2728038169 3.2751000943 3.2767235303 3.1409529028 3.0736518824 3.0733757067 3.0718268417 
3.0676293278 3.0613600594 3.0525070724 3.0440863053 3.0365508116 3.0300773427 3.0316864753 3.277493812 3.2714148771 
3.125257051 3.2746918143 3.1185019036 3.2769740826 3.0736414794 3.2639336741 3.1063365729 3.1027437195 3.275837454 
3.0969356279 3.0732672723 3.0731038886 3.1123657084 3.2762606685 3.2778961792 3.0769760944 3.0731337148 3.073961695 
3.0957944243 3.0205534888 3.0343221336 3.0042365388 3.011077071 2.9894952 2.9979560541 3.011539015 3.0458658393 
3.068068423 3.0462743448 3.099970046 3.0681599436 3.0869559755 3.1035242471 3.115160461 3.1283511547 3.1411644147 
3.15327587 3.1625257282 3.170544371 3.1675038863 3.1592450776 3.1503601042 3.1417804495 3.1349939065 3.1285861124 
3.1225725121 3.1163557574 3.1106610074 3.0935726063 3.0896555517 3.0846825088 3.076836324 3.0669768768 3.0566420492 
3.0484439003 3.0406342089 3.0315635035 3.1040800498 3.1287559313 3.1451206484 3.1586328329 3.1685171717 3.1805073563 
3.1929887853 3.2027825235 3.2159752074 3.2299431525 3.2427815615 3.2527560799 3.2596724771 3.2686378479 3.2733623063 
3.2757227685 3.2774369142 3.1287292498 3.0708530849 3.0703643577 3.0689212321 3.0647417776 3.0587254411 3.0503634414 
3.0421691426 3.0348606884 3.0287651175 3.0301721732 3.2782722196 3.2718465745 3.1261544809 3.2752682492 3.1193115055 
3.2773769066 3.0711220666 3.2642838674 3.107002121 3.103340194 3.2764011994 3.097575049 3.0704793415 3.0702917289 
3.1131810342 3.2768138867 3.278447837 3.0746251173 3.0708111762 3.0707510671 3.0964290923 3.0209441978 3.0345812059 
3.0042392074 3.0108519204 2.9900082241 2.9984301081 3.0120510328 3.0469593546 3.0691539737 3.04590565 3.1006093934 
3.0678017161 3.0866835284 3.1035363773 3.115424882 3.1285997804 3.1415101499 3.1540532102 3.1639939701 3.172303208 
3.1698813515 3.1619048857 3.1521503535 3.143161945 3.1360466 3.129480015 3.1233219147 3.1170735996 3.1113628602 
3.09410781 3.0901572048 3.0850960355 3.0772153223 3.0672109022 3.0568706458 3.0485952071 3.0408173393 3.0311286129 
3.1053356422 3.1298575682 3.1461601294 3.1596835253 3.1695570684 3.1815327958 3.1939464136 3.2038208912 3.2171985066 
3.2308301304 3.2435941243 3.2535169337 3.2602804686 3.2690359983 3.2738600615 3.2763476851 3.2777303914 3.1029143335 
3.0665598926 3.0672204668 3.0670112647 3.0634650691 3.058163202 3.0499605555 3.041885671 3.0348601297 3.0289565949 
3.0304251428 3.2788127303 3.2722835463 3.1270260685 3.2756874396 3.1200768451 3.2764822694 3.0668967528 3.2647019867 
3.1076874223 3.1039391217 3.2770713105 3.0982622715 3.0682390604 3.0680049155 3.1138859654 3.2772939843 3.2800323818 
3.0687629327 3.0666355165 3.0663767603 3.0970537519 3.0219597698 3.0346720319 3.0043101164 3.0109681693 2.9908352054 
2.999038927 3.0126852179 3.0483903979 3.0704869118 3.0454803904 3.1012298719 3.0672941676 3.0861982376 3.1032869995 
3.1153358934 3.1283970176 3.1413158745 3.1545540036 3.1652438585 3.1737018901 3.172155908 3.1647383918 3.1538902379 
3.1443121763 3.1367995474 3.130029389 3.1239322435 3.1174073913 3.111966623 3.0946735545 3.0907798563 3.0855875311 
3.0777362399 3.0675239972 3.057166923 3.0487677811 3.0410353357 3.0302720914 3.1067487345 3.131219108 3.1473836473 
3.1608990472 3.170755459 3.1826286168 3.1950706685 3.2050577883 3.2185471482 3.231916316 3.2444391193 3.2546993731 
3.2611996152 3.2696991233 3.2750236125 3.277580855 3.2790840838 3.0681287724 3.0685119231 3.0692597855 3.0696472813 
3.0660998307 3.0609003233 3.052390677 3.0443260708 3.0372286482 3.0313319222 3.0326984943 3.2803316689 3.2729554459 
3.1277017536 3.2767144419 3.1207048725 3.2660166308 3.0654458798 3.2654101909 3.1083226358 3.104533008 3.2781429032 
3.0989669887 3.0711081223 3.0706639155 3.1145455071 3.278594908 3.2857134992 3.0619440135 3.0679722456 3.0685758568 
3.0976414014 3.0231372889 3.033364193 3.0033979024 3.0107612595 2.9906281542 2.9989661372 3.0129992279 3.0487898018 
3.0713118735 3.0445367377 3.1018652131 3.0656204236 3.0847815456 3.1021255156 3.1142867471 3.1275553917 3.1400127631 
3.1549137168 3.1652481642 3.1750964587 3.1751256572 3.1681630611 3.1559847013 3.145539658 3.1374845103 3.1305917543 
3.1244206023 3.1191352852 3.1131568581 3.095267645 3.0914357238 3.0861087407 3.078252036 3.0677789856 3.0574121244 
3.048848873 3.0411320083 3.0288449234 3.1075088455 3.1322647314 3.148296311 3.1616598242 3.1716522054 3.1835240765 
3.1960650509 3.2062586497 3.2198299293 3.2331356174 3.246173289 3.2558558969 3.2627168466 3.2713190143 3.2781884481 
3.2805025442 3.28046621 3.0721657902 3.073970777 3.0737122138 3.0732227343 3.0697504493 3.0644009202 3.0558563327 
3.0480546861 3.040566381 3.0345491464 3.0362954494 3.2817499481 3.2750589527 3.1283601172 3.2795104053 3.1213355147 
3.1290642859 3.0733543945 3.2667648759 3.1092227675 3.1051346198 3.2805189562 3.0996528512 3.0743000993 3.0746628637 
3.1160821447 3.2806712855 3.2723583484 3.0706556011 3.0734128925 3.0735384545 3.0980758425 3.0236175912 3.0324341228 
3.001025421 3.0055939787 2.9899082692 2.997787751 3.0122581494 3.0476180928 3.0708775689 3.042280129 3.1020757222 
3.0639663077 3.0831572742 3.1008789448 3.112605991 3.1261637489 3.1383190169 3.155756226 3.1668488452 3.1778765389 
3.1806570136 3.1731205425 3.1596305333 3.1470858538 3.1382295195 3.1314042715 3.1250013252 3.1189397966 3.1139977918 
3.095920352 3.091977186 3.0865767589 3.0789483564 3.0679999472 3.057453342 3.0486313166 3.0409928183 3.026709682 
3.1073587671 3.1325734297 3.1489902773 3.1624561369 3.1726480896 3.1844559259 3.1969550405 3.2080839808 3.2221810032 
3.2359912202 3.2497084877 3.2622710653 3.2667988945 3.2750889474 3.2806284863 3.2806229662 3.2784417683 3.0717359186 
3.07839251 3.0783052037 3.0777743847 3.0741277619 3.0683244208 3.0592598283 3.051564194 3.043800467 3.0372693717 
3.040123136 3.2767579102 3.2784002799 3.1285900041 3.2805951316 3.1219662769 3.0595543365 3.0762758694 3.2702417551 
3.1091493169 3.1053769612 3.2802715433 3.1001784869 3.078635095 3.0789563164 3.1166364914 3.2802490051 3.0898556921 
3.0743669526 3.076812998 3.0787207355 3.0985012835 3.02620003 3.0342081036 3.0045497509 3.0084927636 2.9903074906 
2.9991083108 3.0143179548 3.047294985 3.0703208627 3.0456253365 3.1022547111 3.0659226156 3.0865182204 3.101350695 
3.1146896211 3.1280890681 3.1404338914 3.1601344629 3.1818333322 3.1851824681 3.1846113852 3.1757747331 3.1599660623 
3.1473380909 3.1380560806 3.1310563328 3.1241680278 3.1168768241 3.1117177048 3.0956479465 3.0933237496 3.0873742425 
3.078055778 3.0682228686 3.0569928953 3.0477024529 3.0392426028 3.0243386698 3.1045700272 3.1323349062 3.1534346363 
3.1673877569 3.1765082954 3.1935806007 3.2023419557 3.2131288872 3.2313215279 3.2434101433 3.2593371038 3.2685314009 