# vtk DataFile Version 4.2
vtk output
ASCII
DATASET POLYDATA
POINTS 6613 float
2628.37 -2418.1 5800 2638.9 -2425.26 5800 2661.56 -2418.09 5800 
2609.26 -2405.09 5800 2609.91 -2405.54 5800 2667.91 -2416.81 5800 
2682.19 -2405.09 5800 2590.14 -2392.09 5800 2696.91 -2393.71 5800 
2699 -2392.09 5800 2571.03 -2379.09 5800 2580.91 -2385.81 5800 
2715.8 -2379.09 5800 2551.91 -2366.09 5800 2725.91 -2371.27 5800 
2732.61 -2366.09 5800 2532.8 -2353.09 5800 2551.91 -2366.09 5800 
2749.41 -2353.09 5800 2513.69 -2340.09 5800 2522.91 -2346.36 5800 
2754.91 -2348.83 5800 2766.22 -2340.08 5800 2494.57 -2327.09 5800 
2783.02 -2327.08 5800 2475.46 -2314.09 5800 2493.91 -2326.64 5800 
2783.92 -2326.39 5800 2799.83 -2314.08 5800 2456.34 -2301.09 5800 
2464.91 -2306.92 5800 2812.92 -2303.95 5800 2816.64 -2301.08 5800 
2437.23 -2288.09 5800 2833.44 -2288.08 5800 2418.92 -2275.09 5800 
2435.91 -2287.19 5800 2841.92 -2281.52 5800 2850.25 -2275.08 5800 
2401.82 -2262.09 5800 2406.91 -2266.27 5800 2867.05 -2262.08 5800 
2385.99 -2249.09 5800 2870.93 -2259.08 5800 2883.86 -2249.07 5800 
2370.42 -2236.09 5800 2377.91 -2242.45 5800 2899.93 -2236.64 5800 
2900.66 -2236.07 5800 2354.33 -2223.09 5800 2917.47 -2223.07 5800 
2340.31 -2210.09 5800 2348.91 -2218.64 5800 2928.93 -2214.2 5800 
2934.27 -2210.07 5800 2325.98 -2197.09 5800 2951.08 -2197.07 5800 
2311.65 -2184.09 5800 2319.91 -2192.01 5800 2957.93 -2191.76 5800 
2967.54 -2184.07 5800 2298.08 -2171.09 5800 2984.38 -2171.06 5800 
2284.52 -2158.09 5800 2290.91 -2164.21 5800 2986.94 -2169.1 5800 
2999.23 -2158.06 5800 2270.96 -2145.09 5800 3013.97 -2145.06 5800 
2260 -2132.09 5800 2261.91 -2136.42 5800 3015.94 -2137.84 5800 
3016.74 -2132.06 5800 2255.79 -2119.09 5800 3017.67 -2119.06 5800 
2255.05 -2106.08 5800 3018.32 -2106.06 5800 2256.16 -2093.08 5800 
3018.75 -2093.06 5800 2257.02 -2080.08 5800 3019.13 -2080.06 5800 
2255.57 -2067.08 5800 3019.51 -2067.05 5800 2254 -2054.08 5800 
3019.89 -2054.05 5800 2252.44 -2041.08 5800 3020.27 -2041.05 5800 
2250.87 -2028.08 5800 3020.65 -2028.05 5800 2248.78 -2015.08 5800 
3021.03 -2015.05 5800 2245.65 -2002.08 5800 3021.41 -2002.05 5800 
2243.16 -1989.08 5800 3021.79 -1989.05 5800 2241.12 -1976.07 5800 
3022.17 -1976.05 5800 2239.42 -1963.07 5800 3022.55 -1963.05 5800 
2237.99 -1950.07 5800 3022.93 -1950.05 5800 2236.76 -1937.07 5800 
3023.31 -1937.04 5800 2235.7 -1924.07 5800 3023.69 -1924.04 5800 
2234.77 -1911.07 5800 3024.07 -1911.04 5800 2232.54 -1898.07 5800 
2232.93 -1899.38 5800 3024.45 -1898.04 5800 2228.2 -1885.07 5800 
3024.83 -1885.04 5800 2224.7 -1872.07 5800 3025.21 -1872.04 5800 
2221.82 -1859.07 5800 3025.59 -1859.04 5800 2219.4 -1846.07 5800 
3025.97 -1846.04 5800 2217.34 -1833.06 5800 3026.35 -1833.04 5800 
2215.58 -1820.06 5800 3026.73 -1820.04 5800 2214.04 -1807.06 5800 
3027.11 -1807.03 5800 2212.48 -1794.06 5800 3027.49 -1794.03 5800 
2209.95 -1781.06 5800 3027.87 -1781.03 5800 2207.42 -1768.06 5800 
3029.17 -1768.03 5800 2204.89 -1755.06 5800 3036.12 -1755.03 5800 
2201.76 -1742.06 5800 2203.94 -1750.21 5800 3042.8 -1742.03 5800 
2198.72 -1729.06 5800 3044.97 -1739.3 5800 3053.42 -1729.03 5800 
2196.1 -1716.06 5800 3063.43 -1716.03 5800 2193.79 -1703.06 5800 
3073.75 -1703.03 5800 2191.78 -1690.05 5800 3073.98 -1702.74 5800 
3084.06 -1690.02 5800 2189.36 -1677.05 5800 3094.37 -1677.02 5800 
2186.75 -1664.05 5800 3102.98 -1666.17 5800 3104.69 -1664.02 5800 
2184.13 -1651.05 5800 3115 -1651.02 5800 2181.52 -1638.05 5800 
3125.32 -1638.02 5800 2178.9 -1625.05 5800 3131.98 -1629.61 5800 
3135.63 -1625.02 5800 2176.29 -1612.05 5800 3145.94 -1612.02 5800 
2173.53 -1599.05 5800 2174.95 -1605.42 5800 3156.26 -1599.01 5800 
2170.9 -1586.05 5800 3160.99 -1593.05 5800 3166.57 -1586.01 5800 
2168.44 -1573.05 5800 3176.88 -1573.01 5800 2165.83 -1560.05 5800 
3187.2 -1560.01 5800 2163.21 -1547.04 5800 3189.99 -1554.9 5800 
3193.92 -1547.01 5800 2160.6 -1534.04 5800 3200.25 -1534.01 5800 
2157.16 -1521.04 5800 3206.58 -1521.01 5800 2147.88 -1508.04 5800 
3212.91 -1508.01 5800 2142.81 -1495.04 5800 2145.96 -1505.07 5800 
3219 -1495.52 5800 3219.15 -1495 5800 2142.38 -1482.04 5800 
3222.54 -1482 5800 2142 -1469.04 5800 3224.22 -1469 5800 
2141.43 -1456.04 5800 3224.69 -1456 5800 2140.84 -1443.04 5800 
3225.16 -1443 5800 2140.24 -1430.04 5800 3225.64 -1430 5800 
2139.64 -1417.04 5800 3226.11 -1417 5800 2139.05 -1404.03 5800 
3226.58 -1404 5800 2138.45 -1391.03 5800 3227.05 -1391 5800 
2137.85 -1378.03 5800 3227.52 -1377.99 5800 2137.26 -1365.03 5800 
3227.99 -1364.99 5800 2136.66 -1352.03 5800 3228.46 -1351.99 5800 
2136.06 -1339.03 5800 3228.94 -1338.99 5800 2135.47 -1326.03 5800 
3229.41 -1325.99 5800 2134.87 -1313.03 5800 3229.88 -1312.99 5800 
2134.27 -1300.03 5800 3230.43 -1299.99 5800 2133.68 -1287.03 5800 
3231.04 -1286.99 5800 2133.14 -1274.02 5800 3231.64 -1273.99 5800 
2132.61 -1261.02 5800 3232.22 -1260.99 5800 2132.09 -1248.02 5800 
3232.8 -1247.98 5800 2131.57 -1235.02 5800 3233.37 -1234.98 5800 
2131.07 -1222.02 5800 3233.93 -1221.98 5800 2130.63 -1209.02 5800 
3234.49 -1208.98 5800 2130.19 -1196.02 5800 3235.03 -1195.98 5800 
2129.76 -1183.02 5800 3235.69 -1182.98 5800 2129.32 -1170.02 5800 
3236.36 -1169.98 5800 2128.88 -1157.02 5800 3237.02 -1156.98 5800 
2128.44 -1144.01 5800 3237.68 -1143.98 5800 2128 -1131.01 5800 
3238.34 -1130.98 5800 2127.56 -1118.01 5800 3239.08 -1117.97 5800 
2127.12 -1105.01 5800 3240.55 -1104.97 5800 2125.85 -1092.01 5800 
3242.11 -1091.97 5800 2123.32 -1079.01 5800 3243.69 -1078.97 5800 
2120.79 -1066.01 5800 3245.31 -1065.97 5800 2118.26 -1053.01 5800 
3246.93 -1052.97 5800 2115.73 -1040.01 5800 2116.99 -1046.5 5800 
3248.03 -1044.18 5800 3248.56 -1039.97 5800 2113.2 -1027.01 5800 
3250.19 -1026.97 5800 2110.67 -1014.01 5800 3251.82 -1013.97 5800 
2109.04 -1001 5800 3253.45 -1000.96 5800 2108.33 -988.003 5800 
3255.08 -987.964 5800 2107.75 -975.002 5800 3256.71 -974.963 5800 
2110.14 -962.001 5800 3258.34 -961.962 5800 2112.54 -949 5800 
3259.97 -948.961 5800 2114.96 -935.999 5800 3261.6 -935.96 5800 
2117 -925.014 5800 2117.36 -922.998 5800 3261.29 -922.959 5800 
2119.66 -909.997 5800 3260.83 -909.958 5800 2121.97 -896.996 5800 
3260.37 -896.957 5800 2124.27 -883.995 5800 3258.17 -883.956 5800 
2126.58 -870.994 5800 3255.96 -870.955 5800 2128.88 -857.993 5800 
2568.39 -857.977 5800 2581.02 -863.337 5800 2604.74 -857.976 5800 
3253.75 -857.954 5800 2131.19 -844.992 5800 2544.04 -844.977 5800 
2552.02 -850.794 5800 2610.02 -856.783 5800 2639.03 -849.87 5800 
2655.49 -844.973 5800 3251.55 -844.953 5800 2133.48 -831.99 5800 
2526.19 -831.977 5800 2668.03 -841.244 5800 2697.03 -832.619 5800 
2707.41 -831.971 5800 3249.34 -831.952 5800 2135.77 -818.989 5800 
2510.09 -818.976 5800 2523.02 -829.673 5800 2726.03 -830.323 5800 
2736.9 -818.969 5800 3248.05 -824.333 5800 3247.12 -818.951 5800 
2138.06 -805.988 5800 2494.45 -805.976 5800 2748.26 -805.967 5800 
3244.29 -805.95 5800 2140.37 -792.987 5800 2477.07 -792.976 5800 
2494.02 -805.617 5800 2755.03 -800.344 5800 2763.59 -792.966 5800 
3241.2 -792.949 5800 2140.51 -779.986 5800 2455.77 -779.975 5800 
2465.02 -785.948 5800 2778.67 -779.964 5800 3238.59 -779.948 5800 
2139.68 -766.985 5800 2440.08 -766.975 5800 2784.04 -775.339 5800 
2793.75 -766.963 5800 3236.77 -766.947 5800 2138.31 -753.984 5800 
2431.31 -753.974 5800 2436.03 -762.827 5800 2808.92 -753.961 5800 
3235.26 -753.946 5800 2136.81 -740.983 5800 2424.38 -740.973 5800 
2813.04 -750.588 5800 2826.31 -740.96 5800 3233.98 -740.945 5800 
2135.31 -727.982 5800 2417.45 -727.973 5800 2842.04 -729.551 5800 
2844.24 -727.958 5800 3232.89 -727.945 5800 2133.81 -714.981 5800 
2410.5 -714.972 5800 2859.39 -714.956 5800 3232.57 -714.944 5800 
2132.31 -701.98 5800 2403.42 -701.971 5800 2407.03 -708.602 5800 
2869.39 -701.955 5800 3232.54 -701.943 5800 2130.8 -688.979 5800 
2396.34 -688.97 5800 2871.05 -699.281 5800 2875.36 -688.954 5800 
3232.52 -688.942 5800 2131.71 -675.979 5800 2389.26 -675.97 5800 
2880.8 -675.953 5800 3232.48 -675.941 5800 2134.43 -662.977 5800 
2382.18 -662.969 5800 2886.34 -662.951 5800 3232.44 -662.94 5800 
2137.66 -649.976 5800 2375 -649.968 5800 2378.03 -655.344 5800 
2891.99 -649.95 5800 3232.41 -649.939 5800 2140.87 -636.975 5800 
2366.55 -636.967 5800 2897.75 -636.949 5800 3232.37 -636.938 5800 
2144.1 -623.974 5800 2354.45 -623.967 5800 2900.05 -631.813 5800 
2903.63 -623.948 5800 3232.33 -623.937 5800 2146.03 -616.277 5800 
2147.07 -610.973 5800 2345.94 -610.966 5800 2349.03 -617.107 5800 
2909.7 -610.947 5800 3232.3 -610.936 5800 2149.1 -597.972 5800 
2339.4 -597.965 5800 2918.15 -597.945 5800 3232.26 -597.935 5800 
2150.49 -584.971 5800 2332.77 -584.965 5800 2926.82 -584.944 5800 
3232.89 -584.934 5800 2148.65 -571.97 5800 2326.09 -571.964 5800 
2929.06 -581.601 5800 2934.63 -571.943 5800 3234.5 -571.932 5800 
2147.13 -558.969 5800 2319.37 -558.963 5800 2320.04 -560.288 5800 
2941.74 -558.942 5800 3236.11 -558.931 5800 2145.64 -545.968 5800 
2146.03 -549.207 5800 2312.92 -545.962 5800 2948.46 -545.94 5800 
3237.72 -545.93 5800 1769.02 -534.512 5800 1754.46 -532.981 5800 
1797.77 -532.979 5800 2144.06 -532.967 5800 2306.73 -532.961 5800 
2954.75 -532.939 5800 3239.33 -532.929 5800 1653.02 -522.475 5800 
1628.92 -519.984 5800 1682.02 -525.472 5800 1711.02 -528.47 5800 
1740.02 -531.467 5800 1798.02 -532.964 5800 1827.02 -528.512 5800 
1847.96 -519.976 5800 2142.22 -519.966 5800 2300.54 -519.961 5800 
2577.58 -519.951 5800 2581.05 -521.197 5800 2583.88 -519.951 5800 
2958.06 -525.939 5800 2961.01 -519.938 5800 3240.95 -519.928 5800 
1566.01 -507.887 5800 1565.19 -506.985 5800 1595.02 -516.48 5800 
1624.02 -519.477 5800 1856.02 -517.505 5800 1868.8 -506.975 5800 
2142.94 -506.965 5800 2294.35 -506.96 5800 2533.83 -506.952 5800 
2552.05 -514.222 5800 2610.05 -507.399 5800 2611.03 -506.949 5800 
2967.3 -506.937 5800 3242.59 -506.927 5800 3596.08 -513.524 5800 
3592.29 -506.915 5800 3625.09 -514.929 5800 3654.09 -508.576 5800 
[...]
POINT_DATA 6613
SCALARS Pressure double
LOOKUP_TABLE default
3.0932710339 3.0932710339 3.0932710339 3.0932710339 3.0932710339 3.0932710339 3.0932710339 3.0932710339 3.0932710339 
3.0932710339 3.0932710339 3.0932710339 3.0932710339 3.0932710339 3.0932710339 3.0932710339 3.0932710339 3.0932710339 
3.0932710339 3.0932710339 3.0932710339 3.0932710339 3.0932710339 3.0932710339 3.0932710339 3.0932710339 3.0932710339 
3.0932710339 3.0932710339 3.0932710339 3.0932710339 3.0932710339 3.0932710339 3.0932710339 3.0932710339 3.0932710339 
3.0932710339 3.0932710339 3.0932710339 3.0932710339 3.0932710339 3.0932710339 3.0932710339 3.0932710339 3.0932710339 
3.0932710339 3.0932710339 3.0932710339 3.0932710339 3.0932710339 3.0932710339 3.0932710339 3.0932710339 3.0932710339 
3.0932710339 3.0932710339 3.0932710339 3.0932710339 3.0932710339 3.0932710339 3.0932710339 3.0932710339 3.0932710339 
3.0932710339 3.0932710339 3.0932710339 3.0932710339 3.0932710339 3.0932710339 3.0932710339 3.0932710339 3.0932710339 
3.0932710339 3.0932710339 3.0932710339 3.0932710339 3.0932710339 3.0932710339 3.0932710339 3.0932710339 3.0932710339 
3.0932710339 3.0932710339 3.0932710339 3.0932710339 3.0932710339 3.0932710339 3.0932710339 3.0932710339 3.0932710339 
3.0932710339 3.0932710339 3.0932710339 3.0932710339 3.0932710339 3.0932710339 3.0932710339 3.0932710339 3.0932710339 
3.0932710339 3.0932710339 3.0932710339 3.0932710339 3.0932710339 3.0932710339 3.0932710339 3.0932710339 3.0932710339 
3.0932710339 3.0932710339 3.0932710339 3.0932710339 3.0932710339 3.0932710339 3.0932710339 3.0932710339 3.0932710339 
3.0932710339 3.0932710339 3.0932710339 3.0932710339 3.0932710339 3.0932710339 3.0932710339 3.0932710339 3.0932710339 
3.0932710339 3.0932710339 3.0932710339 3.0932710339 3.0932710339 3.0932710339 3.0932710339 3.0932710339 3.0932710339 
3.0932710339 3.0932710339 3.0932710339 3.0932710339 3.0932710339 3.0932710339 3.0932710339 3.0932710339 3.0932710339 
3.0932710339 3.0932710339 3.0932710339 3.0932710339 3.0932710339 3.0932710339 3.0932710339 3.0932710339 3.0932710339 
3.0932710339 3.0932710339 3.0932710339 3.0932710339 3.0932710339 3.0932710339 3.0932710339 3.0932710339 3.0932710339 
3.0932710339 3.0932710339 3.0932710339 3.0932710339 3.0932710339 3.0932710339 3.0932710339 3.0932710339 3.0932710339 
3.0932710339 3.0932710339 3.0932710339 3.0932710339 3.0932710339 3.0932710339 3.0932710339 3.0932710339 3.0932710339 
3.0932710339 3.0932710339 3.0932710339 3.0932710339 3.0932710339 3.0932710339 3.0932710339 3.0932710339 3.0932710339 
3.0932710339 3.0932710339 3.0932710339 3.0932710339 3.0932710339 3.0932710339 3.0932710339 3.0932710339 3.0932710339 
3.0932710339 3.0932710339 3.0932710339 3.0932710339 3.0932710339 3.0932710339 3.0932710339 3.0932710339 3.0932710339 
3.0932710339 3.0932710339 3.0932710339 3.0932710339 3.0932710339 3.0932710339 3.0932710339 3.0932710339 3.0932710339 
3.0932710339 3.0932710339 3.0932710339 3.0932710339 3.0932710339 3.0932710339 3.0932710339 3.0932710339 3.0932710339 
3.0932710339 3.0932710339 3.0932710339 3.0932710339 3.0932710339 3.0932710339 3.0932710339 3.0932710339 3.0932710339 
3.0932710339 3.0932710339 3.0932710339 3.0932710339 3.0932710339 3.0932710339 3.0932710339 3.0932710339 3.0932710339 
3.0932710339 3.0932710339 3.0932710339 3.0932710339 3.0932710339 3.0932710339 3.0932710339 3.0932710339 3.0932710339 
3.0932710339 3.0932710339 3.0932710339 3.0932710339 3.0932710339 3.0932710339 3.0932710339 3.0932710339 3.0932710339 
3.0932710339 3.0932710339 3.0932710339 3.0932710339 3.0932710339 3.0932710339 3.0932710339 3.0932710339 3.0932710339 
3.0932710339 3.0932710339 3.0932710339 3.0932710339 3.0932710339 3.0932710339 3.0932710339 3.0932710339 3.0932710339 
3.0932710339 3.0932710339 3.0932710339 3.1078652246 3.1078652246 3.1078652246 3.0932710339 3.0932710339 3.1078652246 
3.1078652246 3.1078652246 3.1078652246 3.1078652246 3.0932710339 3.0932710339 3.1078652246 3.1078652246 3.1078652246 
3.1078652246 3.0932710339 3.0932710339 3.1078652246 3.1078652246 3.1078652246 3.1078652246 3.0932710339 3.0932710339 
3.0932710339 3.1078652246 3.1078652246 3.0932710339 3.0932710339 3.1078652246 3.1078652246 3.1078652246 3.1078652246 
3.0932710339 3.0932710339 3.1078652246 3.1078652246 3.1078652246 3.0932710339 3.0932710339 3.1078652246 3.1078652246 
3.1078652246 3.0932710339 3.0932710339 3.1078652246 3.1078652246 3.1078652246 3.0932710339 3.0932710339 3.1078652246 
3.1078652246 3.1078652246 3.0932710339 3.0932710339 3.1078652246 3.1078652246 3.1078652246 3.0932710339 3.0932710339 
3.1078652246 3.1078652246 3.0932710339 3.0932710339 3.1078652246 3.1078652246 3.1078652246 3.0932710339 3.0932710339 
3.1078652246 3.1078652246 3.1078652246 3.0932710339 3.0932710339 3.1078652246 3.1078652246 3.0932710339 3.0932710339 
3.1078652246 3.1078652246 3.0932710339 3.0932710339 3.1078652246 3.1078652246 3.1078652246 3.0932710339 3.0932710339 
3.1078652246 3.1078652246 3.0932710339 3.0932710339 3.1078652246 3.1078652246 3.1078652246 3.0932710339 3.0932710339 
3.0932710339 3.1078652246 3.1078652246 3.1078652246 3.0932710339 3.0932710339 3.1078652246 3.1078652246 3.0932710339 
3.0932710339 3.1078652246 3.1078652246 3.0932710339 3.0932710339 3.1078652246 3.1078652246 3.1078652246 3.0932710339 
3.0932710339 3.1078652246 3.1078652246 3.1078652246 3.0932710339 3.0932710339 3.0932710339 3.1078652246 3.1078652246 
3.0932710339 3.0786768432 3.0786768432 3.0786768432 3.0932710339 3.1078652246 3.1078652246 3.0932710339 3.0786768432 
3.0786768432 3.0786768432 3.0786768432 3.0786768432 3.0786768432 3.0786768432 3.0786768432 3.0932710339 3.1078652246 
3.1224594153 3.1224594153 3.1224594153 3.1078652246 3.1078652246 3.0932710339 3.0786768432 3.0786768432 3.0786768432 
3.0786768432 3.0786768432 3.0786768432 3.0932710339 3.1078652246 3.1224594153 3.1224594153 3.1224594153 3.1224594153 
3.1078652246 3.0932710339 3.0786768432 3.0786768432 3.0786768432 3.0786768432 3.0786768432 3.0786768432 3.0786768432 
3.0932710339 3.1078652246 3.1078652246 3.1224594153 3.1224594153 3.1224594153 3.1224594153 3.1078652246 3.0932710339 
3.0786768432 3.0786768432 3.0786768432 3.0786768432 3.0786768432 3.0786768432 3.0932710339 3.1078652246 3.1224594153 
3.1224594153 3.1224594153 3.1224594153 3.1078652246 3.0932710339 3.0786768432 3.0786768432 3.0786768432 3.0786768432 
3.0786768432 3.0786768432 3.0932710339 3.1078652246 3.1224594153 3.1224594153 3.1224594153 3.1078652246 3.0932710339 
3.0786768432 3.0786768432 3.0786768432 3.0786768432 3.0786768432 3.0786768432 3.0932710339 3.0932710339 3.1078652246 
3.1224594153 3.1224594153 3.1224594153 3.1078652246 3.1078652246 3.0932710339 3.0932710339 3.0786768432 3.0786768432 
3.0786768432 3.0786768432 3.0786768432 3.0786768432 3.0932710339 3.1078652246 3.1224594153 3.1224594153 3.1224594153 
3.1078652246 3.0932710339 3.0786768432 3.0786768432 3.0786768432 3.0786768432 3.0786768432 3.0786768432 3.0932710339 
3.1078652246 3.1224594153 3.1224594153 3.1224594153 3.1078652246 3.0932710339 3.0786768432 3.0786768432 3.0786768432 
3.0786768432 3.0932710339 3.1078652246 3.1224594153 3.1224594153 3.1224594153 3.1078652246 3.0932710339 3.0786768432 
3.0786768432 3.0786768432 3.0786768432 3.0786768432 3.0786768432 3.0932710339 3.1078652246 3.1224594153 3.1224594153 
3.1224594153 3.1078652246 3.1078652246 3.0932710339 3.0786768432 3.0786768432 3.0786768432 3.0786768432 3.0786768432 
3.0786768432 3.0786768432 3.0932710339 3.1078652246 3.1224594153 3.1224594153 3.1078652246 3.0932710339 3.0786768432 
3.0786768432 3.0786768432 3.0786768432 3.0786768432 3.0932710339 3.1078652246 3.1078652246 3.1224594153 3.1224594153 
3.1224594153 3.1224594153 3.1078652246 3.0932710339 3.0786768432 3.0786768432 3.0786768432 3.0786768432 3.0932710339 
3.1078652246 3.1224594153 3.1224594153 3.1078652246 3.0932710339 3.0786768432 3.0786768432 3.0786768432 3.0786768432 
3.0786768432 3.0786768432 3.0786768432 3.0932710339 3.1078652246 3.1224594153 3.1224594153 3.1078652246 3.0932710339 
3.0786768432 3.0786768432 3.0786768432 3.0786768432 3.0932710339 3.1078652246 3.1224594153 3.1224594153 3.1224594153 
3.1224594153 3.1078652246 3.0932710339 3.0786768432 3.0786768432 3.0786768432 3.0786768432 3.0786768432 3.0786768432 
3.0932710339 3.1078652246 3.1224594153 3.1224594153 3.1078652246 3.1078652246 3.0932710339 3.0786768432 3.0786768432 
3.0786768432 3.0786768432 3.0786768432 3.0786768432 3.0932710339 3.1078652246 3.1224594153 3.137053606 3.137053606 
3.137053606 3.137053606 3.137053606 3.137053606 3.1224594153 3.1078652246 3.0932710339 3.0786768432 3.0786768432 
3.0786768432 3.0786768432 3.0932710339 3.1078652246 3.1224594153 3.137053606 3.137053606 3.137053606 3.137053606 
3.1224594153 3.1078652246 3.0932710339 3.0786768432 3.0786768432 3.0786768432 3.0786768432 3.0786768432 3.0932710339 
3.1078652246 3.1224594153 3.1224594153 3.137053606 3.137053606 3.1224594153 3.1224594153 3.1078652246 3.0932710339 
3.0786768432 3.0786768432 3.0786768432 3.0786768432 3.0786768432 3.0932710339 3.1078652246 3.1224594153 3.137053606 
3.137053606 3.137053606 3.137053606 3.1224594153 3.1078652246 3.0932710339 3.0786768432 3.0786768432 3.0786768432 
3.0786768432 3.0786768432 3.0932710339 3.1078652246 3.1078652246 3.1224594153 3.137053606 3.137053606 3.137053606 
3.1224594153 3.1078652246 3.0932710339 3.0786768432 3.0786768432 3.0786768432 3.0786768432 3.0932710339 3.1078652246 
3.1224594153 3.137053606 3.137053606 3.137053606 3.1224594153 3.1078652246 3.0932710339 3.0786768432 3.0786768432 
3.0786768432 3.0786768432 3.0932710339 3.1078652246 3.1224594153 3.1224594153 3.137053606 3.137053606 3.137053606 
3.1224594153 3.1078652246 3.0932710339 3.0786768432 3.0786768432 3.0786768432 3.0786768432 3.0640826525 3.0640826525 
3.0640826525 3.0640826525 3.0640826525 3.0786768432 3.0932710339 3.1078652246 3.1224594153 3.137053606 3.137053606 
3.1224594153 3.1224594153 3.1078652246 3.0932710339 3.0786768432 3.0786768432 3.0786768432 3.0786768432 3.0640826525 
3.0640826525 3.0640826525 3.0640826525 3.0640826525 3.0786768432 3.0932710339 3.1078652246 3.1224594153 3.137053606 
3.137053606 3.1224594153 3.1078652246 3.0932710339 3.0786768432 3.0786768432 3.0786768432 3.0640826525 3.0640826525 
3.0640826525 3.0640826525 3.0786768432 3.0932710339 3.1078652246 3.1224594153 3.137053606 3.137053606 3.137053606 
3.137053606 3.1224594153 3.1078652246 3.0932710339 3.0786768432 3.0786768432 3.0786768432 3.0786768432 3.0640826525 
3.0640826525 3.0640826525 3.0786768432 3.0932710339 3.1078652246 3.1224594153 3.1224594153 3.137053606 3.137053606 
3.1224594153 3.1078652246 3.0932710339 3.0786768432 3.0786768432 3.0786768432 3.0640826525 3.0640826525 3.0786768432 
3.0932710339 3.1078652246 3.1224594153 3.137053606 3.137053606 3.1516477967 3.1516477967 3.1516477967 3.137053606 
3.1224594153 3.1078652246 3.0932710339 3.0786768432 3.0786768432 3.0786768432 3.0640826525 3.0640826525 3.0640826525 
3.0786768432 3.0786768432 3.0932710339 3.1078652246 3.1078652246 3.1224594153 3.137053606 3.1516477967 3.1516477967 
3.1516477967 3.1516477967 3.1516477967 3.137053606 3.1224594153 3.1078652246 3.0932710339 3.0786768432 3.0786768432 
3.0786768432 3.0786768432 3.0786768432 3.0786768432 3.0786768432 3.0786768432 3.0786768432 3.0786768432 3.0786768432 
3.0640826525 3.0640826525 3.0786768432 3.0932710339 3.1078652246 3.1224594153 3.137053606 3.137053606 3.1516477967 
3.1516477967 3.1516477967 3.1516477967 3.137053606 3.1224594153 3.1078652246 3.0932710339 3.0786768432 3.0786768432 
3.0786768432 3.0786768432 3.0786768432 3.0640826525 3.0640826525 3.0786768432 3.0932710339 3.1078652246 3.1224594153 
3.1224594153 3.137053606 3.1516477967 3.1516477967 3.1516477967 3.137053606 3.1224594153 3.1078652246 3.0932710339 
3.0786768432 3.0786768432 3.0786768432 3.0786768432 3.0640826525 3.0640826525 3.0494884618 3.0494884618 3.0494884618 
3.0494884618 3.0494884618 3.0640826525 3.0640826525 3.0786768432 3.0932710339 3.1078652246 3.1224594153 3.137053606 
3.1516477967 3.1516477967 3.1516477967 3.137053606 3.1224594153 3.1078652246 3.0932710339 3.0786768432 3.0786768432 
3.0786768432 3.0640826525 3.0494884618 3.0494884618 3.0494884618 3.0640826525 3.0786768432 3.0932710339 3.1078652246 
3.1224594153 3.137053606 3.1516477967 3.1516477967 3.1516477967 3.137053606 3.1224594153 3.1078652246 3.0932710339 
3.0786768432 3.0640826525 3.0640826525 3.0640826525 3.0640826525 3.0786768432 3.0786768432 3.0786768432 3.0640826525 
3.0494884618 3.0494884618 3.0494884618 3.0640826525 3.0786768432 3.0932710339 3.1078652246 3.1224594153 3.137053606 
3.137053606 3.1516477967 3.1516477967 3.137053606 3.1224594153 3.1078652246 3.0932710339 3.0932710339 3.0786768432 
3.0640826525 3.0640826525 3.0640826525 3.0786768432 3.0786768432 3.0786768432 3.0640826525 3.0494884618 3.0494884618 
3.0494884618 3.0640826525 3.0786768432 3.0932710339 3.1078652246 3.1078652246 3.1224594153 3.1224594153 3.137053606 
3.1516477967 3.1516477967 3.1516477967 3.137053606 3.1224594153 3.1078652246 3.0932710339 3.0786768432 3.0786768432 
3.0640826525 3.0640826525 3.0640826525 3.0640826525 3.0786768432 3.0786768432 3.0640826525 3.0494884618 3.0348942711 
3.0348942711 3.0348942711 3.0348942711 3.0494884618 3.0494884618 3.0640826525 3.0786768432 3.0932710339 3.0932710339 
3.1078652246 3.1224594153 3.137053606 3.1516477967 2.9619233175 2.9619233175 2.9765175082 2.9765175082 2.991111699 
2.991111699 3.0057058897 3.0057058897 3.0203000804 3.0203000804 3.0348942711 3.0348942711 3.0494884618 3.0494884618 
3.0640826525 3.0640826525 3.0786768432 3.0786768432 3.0932710339 3.0932710339 3.1078652246 3.1078652246 3.1224594153 
3.1224594153 3.137053606 3.137053606 3.1516477967 3.1516477967 2.9619233175 2.9765175082 2.991111699 3.0057058897 
3.0203000804 3.0348942711 3.0494884618 3.0640826525 3.0786768432 3.0932710339 3.1078652246 3.1224594153 3.137053606 
3.1516477967 2.9619233175 2.9765175082 2.991111699 3.0057058897 3.0203000804 3.0348942711 3.0494884618 3.0640826525 
3.0786768432 3.0932710339 3.1078652246 3.1224594153 3.137053606 3.1516477967 2.9619233175 2.9765175082 2.991111699 
3.0057058897 3.0203000804 3.0348942711 3.0494884618 3.0640826525 3.0786768432 3.0932710339 3.1078652246 3.1224594153 
3.137053606 3.1516477967 2.9619233175 2.9765175082 2.991111699 3.0057058897 3.0203000804 3.0348942711 3.0494884618 
3.0640826525 3.0786768432 3.0932710339 3.1078652246 3.1224594153 3.137053606 3.1516477967 2.9619233175 2.9765175082 
2.991111699 3.0057058897 3.0203000804 3.0348942711 3.0494884618 3.0640826525 3.0786768432 3.0932710339 3.1078652246 
3.1224594153 3.137053606 3.137053606 3.1224594153 3.1078652246 3.0932710339 3.0786768432 3.0640826525 3.0640826525 
3.0640826525 3.0786768432 3.0786768432 3.0786768432 3.0640826525 3.0494884618 3.0348942711 3.0348942711 3.0348942711 
3.0494884618 3.0640826525 3.0786768432 3.0932710339 3.1078652246 3.1224594153 3.137053606 3.137053606 2.9619233175 
2.9619233175 2.9765175082 2.9765175082 2.991111699 2.991111699 3.0057058897 3.0057058897 3.0203000804 3.0203000804 
3.0348942711 3.0348942711 3.0494884618 3.0494884618 3.0640826525 3.0640826525 3.0786768432 3.0786768432 3.0932710339 
3.0932710339 3.1078652246 3.1078652246 3.1224594153 3.1224594153 3.137053606 3.137053606 2.9619233175 2.9765175082 
2.991111699 3.0057058897 3.0203000804 3.0348942711 3.0494884618 3.0640826525 3.0786768432 3.0932710339 3.1078652246 
3.1224594153 3.137053606 2.9619233175 2.9765175082 2.991111699 3.0057058897 3.0203000804 3.0348942711 3.0494884618 
3.0640826525 3.0786768432 3.0932710339 3.1078652246 3.1224594153 3.137053606 3.1516477967 2.9619233175 2.9765175082 
2.991111699 3.0057058897 3.0203000804 3.0348942711 3.0494884618 3.0640826525 3.0786768432 3.0932710339 3.1078652246 
3.1224594153 3.137053606 3.1516477967 2.9619233175 2.9765175082 2.991111699 3.0057058897 3.0203000804 3.0348942711 
3.0494884618 3.0640826525 3.0786768432 3.0932710339 3.1078652246 3.1224594153 3.137053606 3.1516477967 2.9619233175 
2.9765175082 2.991111699 3.0057058897 3.0203000804 3.0348942711 3.0494884618 3.0640826525 3.0786768432 3.0932710339 
3.1078652246 3.1224594153 3.137053606 3.1516477967 2.9619233175 2.9765175082 2.991111699 3.0057058897 3.0203000804 
3.0348942711 3.0494884618 3.0640826525 3.0786768432 3.0932710339 3.1078652246 3.1224594153 3.137053606 3.1516477967 
2.9619233175 2.9765175082 2.991111699 3.0057058897 3.0203000804 3.0348942711 3.0494884618 3.0640826525 3.0786768432 
3.0932710339 3.1078652246 3.1224594153 3.137053606 2.9619233175 2.9765175082 2.991111699 3.0057058897 3.0203000804 
3.0348942711 3.0494884618 3.0640826525 3.0786768432 3.0932710339 3.1078652246 3.1224594153 3.137053606 2.9619233175 
2.9765175082 2.991111699 3.0057058897 3.0203000804 3.0348942711 3.0494884618 3.0640826525 3.0786768432 3.0932710339 
3.1078652246 3.1224594153 3.137053606 2.9619233175 2.9765175082 2.991111699 3.0057058897 3.0203000804 3.0348942711 
3.0494884618 3.0640826525 3.0786768432 3.0932710339 3.1078652246 3.1224594153 3.137053606 2.9619233175 2.9765175082 
2.991111699 3.0057058897 3.0203000804 3.0348942711 3.0494884618 3.0640826525 3.0786768432 3.0932710339 3.1078652246 
3.1224594153 2.9619233175 2.9765175082 2.991111699 3.0057058897 3.0203000804 3.0348942711 3.0494884618 3.0640826525 
3.0786768432 3.0932710339 3.1078652246 3.1224594153 2.9619233175 2.9765175082 2.991111699 3.0057058897 3.0203000804 
3.0348942711 3.0494884618 3.0640826525 3.0786768432 3.0932710339 3.1078652246 3.1224594153 2.9619233175 2.9765175082 
2.991111699 3.0057058897 3.0203000804 3.0348942711 3.0494884618 3.0640826525 3.0786768432 3.0932710339 3.1078652246 
3.1224594153 2.9619233175 2.9765175082 2.991111699 3.0057058897 3.0203000804 3.0348942711 3.0494884618 3.0640826525 
3.0786768432 3.0932710339 3.1078652246 3.1224594153 2.9619233175 2.9765175082 2.991111699 3.0057058897 3.0203000804 
3.0348942711 3.0494884618 3.0640826525 3.0786768432 3.0932710339 3.1078652246 3.1224594153 2.9619233175 2.9765175082 
2.991111699 3.0057058897 3.0203000804 3.0348942711 3.0494884618 3.0640826525 3.0786768432 3.0932710339 3.1078652246 
3.1078652246 3.0932710339 3.0786768432 3.0640826525 3.0640826525 3.0640826525 3.0786768432 3.0786768432 3.0786768432 
3.0786768432 3.0786768432 3.0786768432 3.0640826525 3.0494884618 3.0348942711 3.0348942711 3.0348942711 3.0494884618 
3.0640826525 3.0786768432 3.0932710339 3.1078652246 2.9619233175 2.9619233175 2.9765175082 2.9765175082 2.991111699 
2.991111699 3.0057058897 3.0057058897 3.0203000804 3.0203000804 3.0348942711 3.0348942711 3.0494884618 3.0494884618 
3.0640826525 3.0640826525 3.0786768432 3.0786768432 3.0932710339 3.0932710339 3.1078652246 3.1078652246 3.1224594153 
2.9619233175 2.9765175082 2.991111699 3.0057058897 3.0203000804 3.0348942711 3.0494884618 3.0640826525 3.0786768432 
3.0932710339 3.1078652246 3.1224594153 3.137053606 2.9619233175 2.9765175082 2.991111699 3.0057058897 3.0203000804 
3.0348942711 3.0494884618 3.0640826525 3.0786768432 3.0932710339 3.1078652246 2.9619233175 2.9765175082 2.991111699 
3.0057058897 3.0203000804 3.0348942711 3.0494884618 3.0640826525 3.0786768432 3.0932710339 3.1078652246 2.9619233175 
2.9765175082 2.991111699 3.0057058897 3.0203000804 3.0348942711 3.0494884618 3.0640826525 3.0786768432 3.0932710339 
3.1078652246 2.9619233175 2.9765175082 2.991111699 3.0057058897 3.0203000804 3.0348942711 3.0494884618 3.0640826525 
3.0786768432 3.0932710339 3.1078652246 2.9619233175 2.9765175082 2.991111699 3.0057058897 3.0203000804 3.0348942711 
3.0494884618 3.0640826525 3.0786768432 3.0932710339 3.1078652246 2.9619233175 2.9765175082 2.991111699 3.0057058897 
3.0203000804 3.0348942711 3.0494884618 3.0640826525 3.0786768432 3.0932710339 3.1078652246 2.9619233175 2.9765175082 
2.991111699 3.0057058897 3.0203000804 3.0348942711 3.0494884618 3.0640826525 3.0786768432 3.0932710339 3.0932710339 
3.0786768432 3.0640826525 3.0640826525 3.0640826525 3.0786768432 3.0786768432 3.0786768432 3.0640826525 3.0494884618 