# vtk DataFile Version 4.2
vtk output
ASCII
DATASET POLYDATA
POINTS 7204 float
1624.46 -2992.13 0 1627.87 -2994.68 0 1633.9 -2992.13 0 
1605.57 -2975.13 0 1664.87 -2979.07 0 1674.2 -2975.13 0 
1591.54 -2958.13 0 1701.87 -2963.46 0 1714.51 -2958.13 0 
1580.97 -2941.13 0 1590.87 -2957.2 0 1738.87 -2950.82 0 
1775.87 -2945.29 0 1812.88 -2941.27 0 1814.18 -2941.12 0 
1570.5 -2924.13 0 1849.88 -2937.24 0 1886.88 -2933.21 0 
1923.88 -2929.18 0 1960.88 -2925.15 0 1970.38 -2924.12 0 
1547.06 -2907.13 0 1553.87 -2911.98 0 1997.88 -2921.12 0 
2034.88 -2917.1 0 2071.88 -2913.07 0 2108.89 -2909.04 0 
2126.58 -2907.11 0 1503.38 -2890.13 0 1516.87 -2895.38 0 
2145.89 -2905.01 0 2182.89 -2900.98 0 2219.89 -2896.96 0 
2230.15 -2890.11 0 1459.71 -2873.13 0 1479.87 -2880.98 0 
2244.15 -2873.11 0 1416.04 -2856.13 0 1442.87 -2866.57 0 
2251.34 -2856.11 0 1372.37 -2839.13 0 1405.87 -2852.17 0 
2255.72 -2839.11 0 1328.7 -2822.13 0 1331.87 -2823.36 0 
1368.87 -2837.77 0 2256.89 -2833.02 0 2259.03 -2822.1 0 
1285.03 -2805.13 0 1294.87 -2808.96 0 2262.36 -2805.1 0 
1241.36 -2788.13 0 1257.87 -2794.56 0 2265.69 -2788.1 0 
1197.68 -2771.13 0 1220.87 -2780.16 0 2269.02 -2771.1 0 
1154.01 -2754.13 0 1183.87 -2765.75 0 2272.35 -2754.1 0 
1110.34 -2737.13 0 1146.87 -2751.35 0 2275.68 -2737.1 0 
1075.22 -2720.13 0 1109.87 -2736.95 0 2279.01 -2720.1 0 
1054.94 -2703.13 0 1072.87 -2718.7 0 2282.34 -2703.1 0 
1035.36 -2686.13 0 1035.87 -2686.58 0 2285.67 -2686.1 0 
1015.77 -2669.13 0 2289 -2669.1 0 996.19 -2652.13 0 
998.871 -2654.46 0 2292.33 -2652.09 0 976.607 -2635.13 0 
2293.91 -2644.06 0 2295.66 -2635.09 0 960.056 -2618.13 0 
961.872 -2622.34 0 2298.99 -2618.09 0 952.827 -2601.13 0 
2302.32 -2601.09 0 945.759 -2584.13 0 2305.65 -2584.09 0 
938.848 -2567.13 0 2308.98 -2567.09 0 932.088 -2550.12 0 
2312.31 -2550.09 0 925.474 -2533.12 0 2315.64 -2533.09 0 
919.271 -2516.12 0 924.876 -2531.57 0 2318.97 -2516.09 0 
913.102 -2499.12 0 2322.3 -2499.08 0 906.933 -2482.12 0 
2325.63 -2482.08 0 900.763 -2465.12 0 2328.96 -2465.08 0 
894.594 -2448.12 0 2330.92 -2455.1 0 2332.29 -2448.08 0 
888.424 -2431.12 0 2335.62 -2431.08 0 882.255 -2414.12 0 
887.881 -2429.62 0 2338.95 -2414.08 0 876.086 -2397.12 0 
2342.28 -2397.08 0 869.916 -2380.12 0 2345.61 -2380.08 0 
863.747 -2363.12 0 2348.94 -2363.08 0 857.578 -2346.11 0 
2352.27 -2346.07 0 851.408 -2329.11 0 2355.6 -2329.07 0 
845.239 -2312.11 0 850.886 -2327.68 0 2358.93 -2312.07 0 
839.07 -2295.11 0 2362.26 -2295.07 0 832.9 -2278.11 0 
2365.59 -2278.07 0 826.731 -2261.11 0 2367.93 -2266.13 0 
2368.92 -2261.07 0 820.561 -2244.11 0 2372.25 -2244.07 0 
814.392 -2227.11 0 2382.09 -2227.07 0 808.223 -2210.11 0 
813.891 -2225.73 0 2395.16 -2210.07 0 802.053 -2193.11 0 
2404.94 -2197.36 0 2408.24 -2193.06 0 795.884 -2176.11 0 
2421.32 -2176.06 0 789.715 -2159.11 0 2434.4 -2159.06 0 
783.545 -2142.1 0 2441.94 -2149.25 0 2447.47 -2142.06 0 
780.565 -2125.1 0 2460.55 -2125.06 0 778.433 -2108.1 0 
2473.63 -2108.06 0 776.353 -2091.1 0 776.898 -2095.55 0 
2478.94 -2101.15 0 2486.7 -2091.06 0 774.274 -2074.1 0 
2498.26 -2074.05 0 772.194 -2057.1 0 2501.94 -2057.05 0 
770.114 -2040.1 0 2504.06 -2040.05 0 768.034 -2023.1 0 
2504.44 -2023.05 0 765.954 -2006.1 0 2503.68 -2006.05 0 
763.874 -1989.1 0 2502.92 -1989.05 0 761.794 -1972.1 0 
2502.16 -1972.05 0 759.715 -1955.09 0 2501.4 -1955.05 0 
757.635 -1938.09 0 2500.64 -1938.05 0 755.555 -1921.09 0 
2499.88 -1921.05 0 753.475 -1904.09 0 2499.12 -1904.04 0 
751.395 -1887.09 0 2498.36 -1887.04 0 749.315 -1870.09 0 
2497.6 -1870.04 0 747.235 -1853.09 0 2496.84 -1853.04 0 
745.156 -1836.09 0 2496.08 -1836.04 0 743.076 -1819.09 0 
2495.32 -1819.04 0 740.977 -1802.09 0 2494.56 -1802.04 0 
738.916 -1785.08 0 739.914 -1793.25 0 2493.8 -1785.04 0 
736.836 -1768.08 0 2493.04 -1768.04 0 732.302 -1751.08 0 
2492.28 -1751.04 0 726.527 -1734.08 0 2491.52 -1734.03 0 
722.174 -1717.08 0 2490.76 -1717.03 0 716.624 -1700.08 0 
2490 -1700.03 0 710.277 -1683.08 0 2489.24 -1683.03 0 
702.452 -1666.08 0 702.921 -1667.32 0 2488.49 -1666.03 0 
-481.11 -1650.14 0 -482.97 -1649.11 0 -444.109 -1657.37 0 
-414.546 -1649.11 0 696.938 -1649.08 0 2487.73 -1649.03 0 
-513.633 -1632.11 0 -407.108 -1647.03 0 -370.106 -1636.68 0 
-353.734 -1632.11 0 693.598 -1632.08 0 2486.97 -1632.03 0 
-518.11 -1629.63 0 -544.297 -1615.11 0 -333.105 -1626.34 0 
-296.103 -1615.99 0 -292.921 -1615.1 0 690.112 -1615.08 0 
2486.21 -1615.03 0 -555.11 -1609.11 0 -574.96 -1598.11 0 
-259.101 -1605.65 0 -233.653 -1598.1 0 686.627 -1598.08 0 
2485.45 -1598.03 0 -592.109 -1588.6 0 -605.624 -1581.11 0 
-222.1 -1594.8 0 -185.098 -1583.49 0 -177.391 -1581.1 0 
683.141 -1581.07 0 2485.48 -1581.03 0 -629.109 -1568.09 0 
-636.287 -1564.11 0 -148.096 -1572.02 0 -122.526 -1564.1 0 
679.656 -1564.07 0 2486.55 -1564.02 0 -666.109 -1547.58 0 
-666.951 -1547.11 0 -111.095 -1560.55 0 -74.0931 -1549.09 0 
-72.1777 -1547.09 0 676.17 -1547.07 0 2487.73 -1547.02 0 
-697.614 -1530.11 0 -55.2641 -1530.09 0 672.685 -1530.07 0 
2488.91 -1530.02 0 -703.109 -1527.06 0 -728.277 -1513.11 0 
-37.2496 -1513.09 0 669.199 -1513.07 0 2490.08 -1513.02 0 
-740.109 -1506.55 0 -754.763 -1496.11 0 -37.09 -1512.94 0 
-26.6297 -1496.09 0 665.713 -1496.07 0 665.93 -1497.13 0 
2491.26 -1496.02 0 -771.043 -1479.11 0 -17.4028 -1479.09 0 
662.228 -1479.07 0 2492.44 -1479.02 0 -777.107 -1470.43 0 
-782.68 -1462.11 0 -7.60174 -1462.09 0 658.742 -1462.07 0 
2493.61 -1462.02 0 -794.062 -1445.11 0 -0.0853167 -1450.47 0 
3.46493 -1445.08 0 655.257 -1445.07 0 1368.69 -1445.05 0 
1368.95 -1445.13 0 1405.95 -1445.85 0 1442.95 -1446.56 0 
1479.95 -1447.28 0 1516.96 -1448 0 1546.53 -1445.04 0 
2494.79 -1445.02 0 -805.445 -1428.11 0 15.9955 -1428.08 0 
651.771 -1428.07 0 1324.56 -1428.05 0 1331.95 -1431.65 0 
1553.96 -1443.99 0 1573.5 -1428.04 0 2495.97 -1428.02 0 
-814.105 -1415.17 0 -816.827 -1411.11 0 28.8388 -1411.08 0 
648.286 -1411.07 0 1289.7 -1411.05 0 1294.95 -1413.61 0 
1590.96 -1413.78 0 1594.32 -1411.04 0 2497.15 -1411.02 0 
-828.21 -1394.1 0 36.9186 -1400.39 0 41.682 -1394.08 0 
644.8 -1394.06 0 1254.83 -1394.05 0 1257.95 -1395.57 0 
1615.15 -1394.04 0 2498.32 -1394.01 0 -839.592 -1377.1 0 
54.5253 -1377.08 0 641.314 -1377.06 0 1220.56 -1377.05 0 
1220.95 -1377.52 0 1627.96 -1383.58 0 1635.97 -1377.04 0 
2499.5 -1377.01 0 -850.974 -1360.1 0 67.3686 -1360.08 0 
637.829 -1360.06 0 1205.22 -1360.05 0 1656.8 -1360.04 0 
2500.68 -1360.01 0 -851.103 -1359.91 0 -862.357 -1343.1 0 
73.9225 -1351.4 0 80.2118 -1343.08 0 634.343 -1343.06 0 
1187.01 -1343.05 0 1664.97 -1353.37 0 1677.62 -1343.03 0 
2501.85 -1343.01 0 -873.739 -1326.1 0 93.0551 -1326.08 0 
630.858 -1326.06 0 1170.59 -1326.05 0 1183.95 -1340.47 0 
1698.45 -1326.03 0 2502.02 -1326.01 0 -885.122 -1309.1 0 
105.898 -1309.07 0 625.465 -1309.06 0 628.939 -1320.04 0 
1152.32 -1309.05 0 1701.97 -1323.16 0 1720.63 -1309.03 0 
2499.78 -1309.01 0 -888.101 -1304.65 0 -896.504 -1292.1 0 
110.926 -1302.42 0 118.742 -1292.07 0 616.241 -1292.06 0 
1129.5 -1292.05 0 1146.95 -1304.58 0 1738.97 -1292.47 0 
1739.22 -1292.03 0 2498.09 -1292.01 0 -907.887 -1275.1 0 
131.585 -1275.07 0 607.018 -1275.06 0 1105.84 -1275.05 0 
1109.95 -1278 0 1746.44 -1275.03 0 2495.47 -1275.01 0 
-919.269 -1258.1 0 144.428 -1258.07 0 597.794 -1258.06 0 
1082.17 -1258.04 0 1755.27 -1258.03 0 2491.98 -1258.01 0 
-925.099 -1249.39 0 -930.651 -1241.1 0 147.93 -1253.43 0 
154.591 -1241.07 0 589.707 -1241.06 0 591.943 -1246.78 0 
1058.5 -1241.04 0 1072.96 -1251.42 0 1767.55 -1241.03 0 
2488.48 -1241.01 0 -942.034 -1224.1 0 161.424 -1224.07 0 
585.98 -1224.06 0 1034.84 -1224.04 0 1035.96 -1224.85 0 
1775.98 -1229.36 0 1779.83 -1224.02 0 2484.99 -1224 0 
-953.416 -1207.1 0 165.05 -1207.07 0 582.253 -1207.06 0 
1011.17 -1207.04 0 1792.11 -1207.02 0 2481.5 -1207 0 
-962.096 -1194.13 0 -964.799 -1190.1 0 167.285 -1190.07 0 
578.527 -1190.05 0 992.096 -1190.04 0 998.956 -1198.27 0 
1804.39 -1190.02 0 2479 -1194.83 0 2478.05 -1190 0 
-976.181 -1173.1 0 169.52 -1173.06 0 574.8 -1173.05 0 
977.865 -1173.04 0 1812.98 -1178.14 0 1816.67 -1173.02 0 
2475.21 -1173 0 -987.564 -1156.09 0 171.754 -1156.06 0 
571.073 -1156.05 0 963.563 -1156.04 0 1828.96 -1156.02 0 
2475.03 -1156 0 -998.946 -1139.09 0 173.989 -1139.06 0 
567.346 -1139.05 0 952.332 -1139.04 0 961.958 -1154.14 0 
1841.24 -1139.02 0 2474.86 -1139 0 -999.094 -1138.87 0 
-1010.32 -1122.09 0 176.223 -1122.06 0 563.62 -1122.05 0 
942.305 -1122.04 0 1849.98 -1126.91 0 1853.52 -1122.02 0 
2474.69 -1122 0 -1027.17 -1105.09 0 178.458 -1105.06 0 
559.893 -1105.05 0 933.13 -1105.04 0 1865.8 -1105.01 0 
2474.53 -1105 0 -1035.29 -1088.09 0 180.692 -1088.06 0 
556.166 -1088.05 0 924.436 -1088.04 0 924.961 -1089.06 0 
1876.69 -1088.01 0 2474.38 -1088 0 -1036.09 -1083.63 0 
-1038.2 -1071.09 0 183.083 -1071.06 0 552.419 -1071.05 0 
554.951 -1082.51 0 915.742 -1071.04 0 1885.42 -1071.01 0 
2474.23 -1071 0 -1040.82 -1054.09 0 184.942 -1066.53 0 
190.073 -1054.06 0 548.667 -1054.05 0 903.206 -1054.04 0 
1886.99 -1067.65 0 1892.48 -1054.01 0 2474.07 -1054 0 
-1043.2 -1037.09 0 197.066 -1037.06 0 544.92 -1037.05 0 
888.941 -1037.04 0 1899.32 -1037.01 0 2473.92 -1036.99 0 
-1045.37 -1020.09 0 204.06 -1020.05 0 541.178 -1020.05 0 
874.676 -1020.04 0 887.963 -1035.87 0 1906.16 -1020.01 0 
2473.77 -1019.99 0 -1047.35 -1003.09 0 211.054 -1003.05 0 
537.442 -1003.04 0 860.411 -1003.04 0 1913 -1003.01 0 
2473.62 -1002.99 0 -1049.17 -986.086 0 218.047 -986.052 0 
533.71 -986.044 0 846.145 -986.035 0 850.965 -991.779 0 
1919.84 -986.006 0 2473.49 -985.991 0 -1050.95 -969.085 0 
221.949 -976.568 0 224.313 -969.051 0 529.123 -969.043 0 
831.88 -969.034 0 1923.99 -975.676 0 1926.68 -969.005 0 
2473.47 -968.99 0 -1053.15 -952.084 0 228.584 -952.05 0 
523.19 -952.042 0 817.615 -952.034 0 1933.52 -952.004 0 
2471.54 -951.989 0 -1055.35 -935.083 0 231.81 -935.049 0 
517.22 -935.041 0 517.959 -937.271 0 804.142 -935.033 0 
813.966 -947.685 0 1941.84 -935.003 0 2469.24 -934.988 0 
-1057.56 -918.083 0 232.979 -918.048 0 511.782 -918.04 0 
[...]
POINT_DATA 7204
SCALARS Pressure double
LOOKUP_TABLE default
3.0932710339 3.0932710339 3.0932710339 3.0932710339 3.0932710339 3.0932710339 3.0932710339 3.0932710339 3.0932710339 
3.0932710339 3.0932710339 3.0932710339 3.0932710339 3.0932710339 3.0932710339 3.0932710339 3.0932710339 3.0932710339 
3.0932710339 3.0932710339 3.0932710339 3.0932710339 3.0932710339 3.0932710339 3.0932710339 3.0932710339 3.0932710339 
3.0932710339 3.0932710339 3.0932710339 3.0932710339 3.0932710339 3.0932710339 3.0932710339 3.0932710339 3.0932710339 
3.0932710339 3.0932710339 3.0932710339 3.0932710339 3.0932710339 3.0932710339 3.0932710339 3.0932710339 3.0932710339 
3.0932710339 3.0932710339 3.0932710339 3.0932710339 3.0932710339 3.0932710339 3.0932710339 3.0932710339 3.0932710339 
3.0932710339 3.0932710339 3.0932710339 3.0932710339 3.0932710339 3.0932710339 3.0932710339 3.0932710339 3.0932710339 
3.0932710339 3.0932710339 3.0932710339 3.0932710339 3.0932710339 3.0932710339 3.0932710339 3.0932710339 3.0932710339 
3.0932710339 3.0932710339 3.0932710339 3.0932710339 3.0932710339 3.0932710339 3.0932710339 3.0932710339 3.0932710339 
3.0932710339 3.0932710339 3.0932710339 3.0932710339 3.0932710339 3.0932710339 3.0932710339 3.0932710339 3.0932710339 
3.0932710339 3.0932710339 3.0932710339 3.0932710339 3.0932710339 3.0932710339 3.0932710339 3.0932710339 3.0932710339 
3.0932710339 3.0932710339 3.0932710339 3.0932710339 3.0932710339 3.0932710339 3.0932710339 3.0932710339 3.0932710339 
3.0932710339 3.0932710339 3.0932710339 3.0932710339 3.0932710339 3.0932710339 3.0932710339 3.0932710339 3.0932710339 
3.0932710339 3.0932710339 3.0932710339 3.0932710339 3.0932710339 3.0932710339 3.0932710339 3.0932710339 3.0932710339 
3.0932710339 3.0932710339 3.0932710339 3.0932710339 3.0932710339 3.0932710339 3.0932710339 3.0932710339 3.0932710339 
3.0932710339 3.0932710339 3.0932710339 3.0932710339 3.0932710339 3.0932710339 3.0932710339 3.0932710339 3.0932710339 
3.0932710339 3.0932710339 3.0932710339 3.0932710339 3.0932710339 3.0932710339 3.0932710339 3.0932710339 3.0932710339 
3.0932710339 3.0932710339 3.0932710339 3.0932710339 3.0932710339 3.0932710339 3.0932710339 3.0932710339 3.0932710339 
3.0932710339 3.0932710339 3.0932710339 3.0932710339 3.0932710339 3.0932710339 3.0932710339 3.0932710339 3.0932710339 
3.0932710339 3.0932710339 3.0932710339 3.0932710339 3.0932710339 3.0932710339 3.0932710339 3.0932710339 3.0932710339 
3.0932710339 3.0932710339 3.0932710339 3.0932710339 3.0932710339 3.0932710339 3.0932710339 3.0932710339 3.0932710339 
3.0932710339 3.0932710339 3.0932710339 3.0932710339 3.0932710339 3.0932710339 3.0932710339 3.0932710339 3.0932710339 
3.0932710339 3.0932710339 3.0932710339 3.0932710339 3.0932710339 3.0932710339 3.0932710339 3.0932710339 3.0932710339 
3.0786768432 3.0786768432 3.0786768432 3.0786768432 3.0932710339 3.0932710339 3.0786768432 3.0786768432 3.0786768432 
3.0786768432 3.0932710339 3.0932710339 3.0786768432 3.0786768432 3.0786768432 3.0786768432 3.0786768432 3.0932710339 
3.0932710339 3.0786768432 3.0786768432 3.0786768432 3.0786768432 3.0932710339 3.0932710339 3.0786768432 3.0786768432 
3.0786768432 3.0786768432 3.0786768432 3.0932710339 3.0932710339 3.0786768432 3.0786768432 3.0786768432 3.0786768432 
3.0932710339 3.0932710339 3.0786768432 3.0786768432 3.0786768432 3.0786768432 3.0786768432 3.0932710339 3.0932710339 
3.0786768432 3.0786768432 3.0932710339 3.0932710339 3.0786768432 3.0786768432 3.0786768432 3.0932710339 3.0932710339 
3.0786768432 3.0786768432 3.0786768432 3.0786768432 3.0932710339 3.0932710339 3.0932710339 3.0786768432 3.0786768432 
3.0932710339 3.0932710339 3.0786768432 3.0786768432 3.0786768432 3.0932710339 3.0932710339 3.0786768432 3.0786768432 
3.0786768432 3.0932710339 3.1078652246 3.1078652246 3.1078652246 3.1078652246 3.1078652246 3.1078652246 3.1078652246 
3.0932710339 3.0786768432 3.0786768432 3.0932710339 3.1078652246 3.1078652246 3.1078652246 3.1078652246 3.0932710339 
3.0786768432 3.0786768432 3.0786768432 3.0932710339 3.1078652246 3.1078652246 3.1078652246 3.1078652246 3.0932710339 
3.0786768432 3.0786768432 3.0786768432 3.0932710339 3.1078652246 3.1078652246 3.1078652246 3.0932710339 3.0786768432 
3.0786768432 3.0932710339 3.1078652246 3.1078652246 3.1078652246 3.1078652246 3.0932710339 3.0786768432 3.0786768432 
3.0932710339 3.1078652246 3.1078652246 3.0932710339 3.0786768432 3.0786768432 3.0786768432 3.0786768432 3.0932710339 
3.1078652246 3.1078652246 3.1078652246 3.0932710339 3.0786768432 3.0786768432 3.0932710339 3.1078652246 3.1078652246 
3.1078652246 3.0932710339 3.0786768432 3.0786768432 3.0932710339 3.0932710339 3.1078652246 3.1078652246 3.1078652246 
3.0932710339 3.0786768432 3.0786768432 3.0786768432 3.0786768432 3.0932710339 3.1078652246 3.1078652246 3.1078652246 
3.1078652246 3.0932710339 3.0786768432 3.0786768432 3.0932710339 3.1078652246 3.1078652246 3.1078652246 3.0932710339 
3.0786768432 3.0786768432 3.0932710339 3.1078652246 3.1078652246 3.0932710339 3.0786768432 3.0786768432 3.0786768432 
3.0786768432 3.0932710339 3.0932710339 3.1078652246 3.1078652246 3.1078652246 3.0932710339 3.0786768432 3.0786768432 
3.0932710339 3.1078652246 3.1078652246 3.1078652246 3.1078652246 3.0932710339 3.0786768432 3.0786768432 3.0932710339 
3.1078652246 3.1078652246 3.0932710339 3.0786768432 3.0786768432 3.0786768432 3.0932710339 3.1078652246 3.1078652246 
3.1078652246 3.0932710339 3.0932710339 3.0786768432 3.0786768432 3.0932710339 3.1078652246 3.1078652246 3.1078652246 
3.0932710339 3.0786768432 3.0786768432 3.0932710339 3.1078652246 3.1078652246 3.0932710339 3.0786768432 3.0786768432 
3.0932710339 3.1078652246 3.1078652246 3.1078652246 3.0932710339 3.0786768432 3.0786768432 3.0786768432 3.0932710339 
3.1078652246 3.1078652246 3.1078652246 3.0932710339 3.0786768432 3.0786768432 3.0932710339 3.1078652246 3.1078652246 
3.0932710339 3.0786768432 3.0786768432 3.0932710339 3.1078652246 3.1078652246 3.1078652246 3.0932710339 3.0786768432 
3.0786768432 3.0786768432 3.0932710339 3.0932710339 3.1078652246 3.1078652246 3.0932710339 3.0786768432 3.0786768432 
3.0786768432 3.0932710339 3.1078652246 3.1078652246 3.1078652246 3.0932710339 3.0786768432 3.0786768432 3.0932710339 
3.1078652246 3.1078652246 3.0932710339 3.0786768432 3.0786768432 3.0932710339 3.1078652246 3.1078652246 3.1078652246 
3.0932710339 3.0786768432 3.0786768432 3.0932710339 3.1078652246 3.1078652246 3.0932710339 3.0786768432 3.0786768432 
3.0932710339 3.1078652246 3.1078652246 3.1078652246 3.0932710339 3.0786768432 3.0786768432 3.0786768432 3.0932710339 
3.1078652246 3.1078652246 3.1078652246 3.0932710339 3.0786768432 3.0786768432 3.0932710339 3.1078652246 3.1078652246 
3.0932710339 3.0786768432 3.0786768432 3.0932710339 3.0932710339 3.1078652246 3.1078652246 3.1078652246 3.0932710339 
3.0786768432 3.0786768432 3.0932710339 3.1078652246 3.1078652246 3.0932710339 3.0786768432 3.0786768432 3.0932710339 
3.1078652246 3.1078652246 3.0932710339 3.0786768432 3.0786768432 3.0932710339 3.1078652246 3.1078652246 3.1078652246 
3.1078652246 3.0932710339 3.0786768432 3.0786768432 3.0932710339 3.1078652246 3.1078652246 3.0932710339 3.0786768432 
3.0786768432 3.0932710339 3.1078652246 3.1078652246 3.0932710339 3.0786768432 3.0786768432 3.0932710339 3.1078652246 
3.1078652246 3.0932710339 3.0786768432 3.0786768432 3.0932710339 3.0932710339 3.1078652246 3.1078652246 3.1224594153 
3.1224594153 3.1224594153 3.1224594153 3.1224594153 3.1078652246 3.0932710339 3.0786768432 3.0786768432 3.0932710339 
3.1078652246 3.1224594153 3.1224594153 3.1224594153 3.1224594153 3.1224594153 3.1224594153 3.1078652246 3.0932710339 
3.0786768432 3.0786768432 3.0786768432 3.0786768432 3.0786768432 3.0786768432 3.0786768432 3.0932710339 3.1078652246 
3.1224594153 3.1224594153 3.1224594153 3.1224594153 3.1224594153 3.1078652246 3.1078652246 3.0932710339 3.0786768432 
3.0786768432 3.0786768432 3.0786768432 3.0786768432 3.0932710339 3.1078652246 3.1078652246 3.1224594153 3.1224594153 
3.1078652246 3.0932710339 3.0786768432 3.0786768432 3.0786768432 3.0786768432 3.0786768432 3.0786768432 3.0640826525 
3.0640826525 3.0640826525 3.0640826525 3.0640826525 3.0640826525 3.0640826525 3.0640826525 3.0640826525 3.0786768432 
3.0932710339 3.1078652246 3.1224594153 3.1224594153 3.1224594153 3.1224594153 3.1078652246 3.0932710339 3.0786768432 
3.0786768432 3.0786768432 3.0786768432 3.0786768432 3.0640826525 3.0640826525 3.0640826525 3.0786768432 3.0932710339 
3.1078652246 3.1224594153 3.1224594153 3.1224594153 3.1224594153 3.1078652246 3.0932710339 3.0786768432 3.0786768432 
3.0786768432 3.0786768432 3.0786768432 3.0786768432 3.0640826525 3.0640826525 3.0640826525 3.0786768432 3.0932710339 
3.1078652246 3.1078652246 3.1224594153 3.1224594153 3.1078652246 3.0932710339 3.0786768432 3.0786768432 3.0786768432 
3.0786768432 3.0786768432 3.0640826525 3.0640826525 3.0640826525 3.0786768432 3.0932710339 3.1078652246 3.1224594153 
3.1224594153 3.1224594153 3.1224594153 3.1078652246 3.0932710339 3.0786768432 3.0786768432 3.0786768432 3.0786768432 
3.0640826525 3.0640826525 3.0640826525 3.0786768432 3.0932710339 3.1078652246 3.1224594153 3.1224594153 3.1078652246 
3.1078652246 3.0932710339 3.0786768432 3.0786768432 3.0786768432 3.0786768432 3.0640826525 3.0640826525 3.0640826525 
3.0786768432 3.0932710339 3.1078652246 3.1224594153 3.1224594153 3.1224594153 3.1224594153 3.1078652246 3.0932710339 
3.0786768432 3.0786768432 3.0786768432 3.0786768432 3.0640826525 3.0640826525 3.0786768432 3.0932710339 3.0932710339 
3.1078652246 3.1224594153 3.1224594153 3.1224594153 3.1078652246 3.0932710339 3.0786768432 3.0786768432 3.0786768432 
3.0786768432 3.0640826525 3.0640826525 3.0640826525 3.0640826525 3.0786768432 3.0932710339 3.1078652246 3.1078652246 
3.1224594153 3.1224594153 3.1078652246 3.0932710339 3.0786768432 3.0786768432 3.0786768432 3.0786768432 3.0640826525 
3.0640826525 3.0786768432 3.0932710339 3.1078652246 3.1224594153 3.1224594153 3.1224594153 3.1224594153 3.1078652246 
3.0932710339 3.0786768432 3.0786768432 3.0786768432 3.0640826525 3.0640826525 3.0640826525 3.0640826525 3.0786768432 
3.0932710339 3.1078652246 3.1224594153 3.1224594153 3.1078652246 3.0932710339 3.0786768432 3.0786768432 3.0786768432 
3.0786768432 3.0640826525 3.0640826525 3.0786768432 3.0932710339 3.1078652246 3.1224594153 3.1224594153 3.1224594153 
3.1078652246 3.0932710339 3.0786768432 3.0786768432 3.0786768432 3.0786768432 3.0786768432 3.0640826525 3.0640826525 
3.0786768432 3.0786768432 3.0932710339 3.1078652246 3.1078652246 3.1224594153 3.1224594153 3.1078652246 3.0932710339 
3.0786768432 3.0786768432 3.0786768432 3.0640826525 3.0640826525 3.0786768432 3.0932710339 3.0932710339 3.1078652246 
3.1224594153 3.1224594153 3.1224594153 3.1078652246 3.0932710339 3.0786768432 3.0786768432 3.0786768432 3.0640826525 
3.0640826525 3.0786768432 3.0932710339 3.1078652246 3.1224594153 3.1224594153 3.1224594153 3.1078652246 3.1078652246 
3.0932710339 3.0786768432 3.0786768432 3.0786768432 3.0640826525 3.0640826525 3.0640826525 3.0640826525 3.0786768432 
3.0932710339 3.1078652246 3.1078652246 3.1224594153 3.1224594153 3.1078652246 3.0932710339 3.0786768432 3.0786768432 
3.0786768432 3.0786768432 3.0640826525 3.0640826525 3.0786768432 3.0932710339 3.1078652246 3.1224594153 3.1224594153 
3.1224594153 3.1224594153 3.1078652246 3.0932710339 3.0786768432 3.0786768432 3.0786768432 3.0786768432 3.0640826525 
3.0640826525 3.0786768432 3.0932710339 3.1078652246 3.1224594153 3.1224594153 3.1078652246 3.0932710339 3.0786768432 
3.0786768432 3.0786768432 3.0640826525 3.0640826525 3.0786768432 3.0932710339 3.1078652246 3.1224594153 3.1224594153 
3.1224594153 3.1078652246 3.0932710339 3.0932710339 3.0786768432 3.0786768432 3.0786768432 3.0786768432 3.0640826525 
3.0494884618 3.0494884618 3.0494884618 3.0494884618 3.0494884618 3.0640826525 3.0786768432 3.0786768432 3.0932710339 
3.1078652246 3.1078652246 3.1224594153 3.137053606 3.137053606 3.137053606 3.1224594153 3.1078652246 3.0932710339 
3.0786768432 3.0786768432 3.0786768432 3.0640826525 3.0494884618 3.0494884618 3.0494884618 3.0640826525 3.0786768432 
3.0932710339 3.0932710339 3.1078652246 3.1224594153 3.137053606 3.137053606 3.137053606 3.137053606 3.137053606 
3.1224594153 3.1078652246 3.0932710339 3.0786768432 3.0786768432 3.0786768432 3.0640826525 3.0640826525 3.0494884618 
3.0494884618 3.0494884618 3.0494884618 3.0640826525 3.0786768432 3.0932710339 3.1078652246 3.1224594153 3.1224594153 
3.137053606 3.137053606 3.137053606 3.137053606 3.1224594153 3.1078652246 3.0932710339 3.0786768432 3.0786768432 
3.0786768432 3.0640826525 3.0494884618 3.0494884618 3.0494884618 3.0640826525 3.0786768432 3.0932710339 3.1078652246 
3.1078652246 3.1224594153 3.137053606 3.137053606 3.1224594153 3.1078652246 3.0932710339 3.0786768432 3.0786768432 
3.0786768432 3.0786768432 3.0786768432 3.0640826525 3.0494884618 3.0494884618 3.0494884618 3.0640826525 3.0786768432 
3.0932710339 3.1078652246 3.1224594153 3.137053606 3.137053606 3.137053606 3.1224594153 3.1078652246 3.0932710339 
3.0786768432 3.0786768432 3.0786768432 3.0640826525 3.0494884618 3.0494884618 3.0640826525 3.0786768432 3.0932710339 
3.1078652246 3.1224594153 3.1224594153 3.137053606 3.137053606 3.137053606 3.137053606 3.1224594153 3.1078652246 
3.0932710339 3.0786768432 3.0786768432 3.0786768432 3.0640826525 3.0494884618 3.0494884618 3.0494884618 3.0640826525 
3.0786768432 3.0932710339 3.0932710339 3.1078652246 3.1078652246 3.1224594153 3.137053606 3.137053606 3.1224594153 
3.1224594153 3.1078652246 3.0932710339 3.0786768432 3.0786768432 3.0786768432 3.0786768432 3.0640826525 3.0494884618 
3.0494884618 3.0494884618 3.0640826525 3.0786768432 3.0932710339 3.1078652246 3.1224594153 3.137053606 3.137053606 
3.1224594153 3.1078652246 3.0932710339 3.0786768432 3.0786768432 3.0786768432 3.0640826525 3.0494884618 3.0494884618 
3.0640826525 3.0786768432 3.0932710339 3.1078652246 3.1224594153 3.137053606 3.137053606 3.137053606 3.1224594153 
3.1078652246 3.0932710339 3.0786768432 3.0786768432 3.0786768432 3.0786768432 3.0786768432 3.0640826525 3.0494884618 
3.0494884618 3.0494884618 3.0640826525 3.0786768432 3.0932710339 3.1078652246 3.1224594153 3.1224594153 3.137053606 
3.137053606 3.137053606 3.1224594153 3.1078652246 3.0932710339 3.0786768432 3.0786768432 3.0786768432 3.0786768432 
3.0786768432 3.0640826525 3.0640826525 3.0494884618 3.0348942711 3.0348942711 3.0348942711 3.0494884618 3.0640826525 
3.0786768432 3.0932710339 3.1078652246 3.1078652246 3.1224594153 3.137053606 3.137053606 3.137053606 3.1224594153 
3.1078652246 3.0932710339 3.0786768432 3.0786768432 3.0786768432 3.0786768432 3.0640826525 3.0494884618 3.0348942711 
3.0348942711 3.0348942711 3.0348942711 3.0348942711 3.0494884618 3.0494884618 3.0640826525 3.0640826525 3.0786768432 
3.0932710339 3.1078652246 3.1224594153 3.137053606 3.137053606 3.1224594153 3.1078652246 3.0932710339 3.0786768432 
3.0640826525 3.0640826525 3.0640826525 3.0640826525 3.0640826525 3.0640826525 3.0786768432 3.0786768432 3.0786768432 
3.0786768432 3.0640826525 3.0494884618 3.0348942711 3.0348942711 3.0494884618 3.0640826525 3.0786768432 3.0786768432 
3.0932710339 3.0932710339 3.1078652246 3.1224594153 3.137053606 3.137053606 3.137053606 3.1224594153 3.1078652246 
3.0932710339 3.0932710339 3.0786768432 3.0640826525 3.0640826525 3.0640826525 3.0786768432 3.0786768432 3.0786768432 
3.0786768432 3.0786768432 3.0640826525 3.0494884618 3.0348942711 3.0348942711 3.0348942711 3.0348942711 3.0494884618 
3.0640826525 3.0786768432 3.0932710339 3.1078652246 3.1224594153 3.1224594153 3.137053606 3.137053606 3.1224594153 
3.1078652246 3.0932710339 3.0786768432 3.0786768432 3.0640826525 3.0640826525 3.0640826525 3.0786768432 3.0786768432 
3.0786768432 3.0786768432 3.0640826525 3.0494884618 3.0348942711 3.0348942711 3.0494884618 3.0640826525 3.0786768432 
3.0932710339 3.1078652246 3.1224594153 3.137053606 3.137053606 3.137053606 3.1224594153 3.1078652246 3.0932710339 
3.0786768432 3.0640826525 3.0640826525 3.0640826525 3.0786768432 3.0786768432 3.0786768432 3.0640826525 3.0494884618 
3.0494884618 3.0348942711 3.0348942711 3.0348942711 3.0348942711 3.0494884618 3.0640826525 3.0640826525 3.0786768432 
3.0932710339 3.1078652246 3.1224594153 3.137053606 3.137053606 3.1224594153 3.1224594153 3.1078652246 3.0932710339 
3.0786768432 3.0640826525 3.0640826525 3.0640826525 3.0786768432 3.0786768432 3.0786768432 3.0640826525 3.0494884618 
3.0348942711 3.0203000804 3.0203000804 3.0203000804 3.0203000804 3.0348942711 3.0494884618 3.0640826525 3.0786768432 
3.0932710339 3.1078652246 3.1224594153 2.9619233175 2.9619233175 2.9765175082 2.9765175082 2.991111699 2.991111699 
3.0057058897 3.0057058897 3.0203000804 3.0203000804 3.0348942711 3.0348942711 3.0494884618 3.0494884618 3.0640826525 
3.0640826525 3.0786768432 3.0786768432 3.0932710339 3.0932710339 3.1078652246 3.1078652246 3.1224594153 3.1224594153 
2.9619233175 2.9765175082 2.991111699 3.0057058897 3.0203000804 3.0348942711 3.0494884618 3.0640826525 3.0786768432 
3.0932710339 3.1078652246 3.1224594153 2.9619233175 2.9765175082 2.991111699 3.0057058897 3.0203000804 3.0348942711 
3.0494884618 3.0640826525 3.0786768432 3.0932710339 3.1078652246 3.1224594153 3.137053606 2.9619233175 2.9765175082 
2.991111699 3.0057058897 3.0203000804 3.0348942711 3.0494884618 3.0640826525 3.0786768432 3.0932710339 3.1078652246 
3.1224594153 3.137053606 2.9619233175 2.9765175082 2.991111699 3.0057058897 3.0203000804 3.0348942711 3.0494884618 
3.0640826525 3.0786768432 3.0932710339 3.1078652246 3.1224594153 3.137053606 2.9619233175 2.9765175082 2.991111699 
3.0057058897 3.0203000804 3.0348942711 3.0494884618 3.0640826525 3.0786768432 3.0932710339 3.1078652246 3.1224594153 
3.137053606 2.9619233175 2.9765175082 2.991111699 3.0057058897 3.0203000804 3.0348942711 3.0494884618 3.0640826525 
3.0786768432 3.0932710339 3.1078652246 3.1224594153 3.137053606 2.9619233175 2.9765175082 2.991111699 3.0057058897 
3.0203000804 3.0348942711 3.0494884618 3.0640826525 3.0786768432 3.0932710339 3.1078652246 3.1224594153 3.137053606 
2.9619233175 2.9765175082 2.991111699 3.0057058897 3.0203000804 3.0348942711 3.0494884618 3.0640826525 3.0786768432 
3.0932710339 3.1078652246 3.1224594153 3.137053606 2.9619233175 2.9765175082 2.991111699 3.0057058897 3.0203000804 
3.0348942711 3.0494884618 3.0640826525 3.0786768432 3.0932710339 3.1078652246 3.1224594153 3.137053606 3.137053606 
3.1224594153 3.1078652246 3.0932710339 3.0786768432 3.0640826525 3.0640826525 3.0786768432 3.0786768432 3.0640826525 
3.0494884618 3.0348942711 3.0203000804 3.0203000804 3.0203000804 3.0203000804 3.0348942711 3.0494884618 3.0640826525 
3.0786768432 3.0932710339 3.1078652246 2.9619233175 2.9619233175 2.9765175082 2.9765175082 2.991111699 2.991111699 
3.0057058897 3.0057058897 3.0203000804 3.0203000804 3.0348942711 3.0348942711 3.0494884618 3.0494884618 3.0640826525 
3.0640826525 3.0786768432 3.0786768432 3.0932710339 3.0932710339 3.1078652246 3.1078652246 2.9619233175 2.9765175082 
2.991111699 3.0057058897 3.0203000804 3.0348942711 3.0494884618 3.0640826525 3.0786768432 3.0932710339 3.1078652246 
2.9619233175 2.9765175082 2.991111699 3.0057058897 3.0203000804 3.0348942711 3.0494884618 3.0640826525 3.0786768432 
3.0932710339 3.1078652246 2.9619233175 2.9765175082 2.991111699 3.0057058897 3.0203000804 3.0348942711 3.0494884618 
3.0640826525 3.0786768432 3.0932710339 3.1078652246 3.1224594153 2.9619233175 2.9765175082 2.991111699 3.0057058897 
3.0203000804 3.0348942711 3.0494884618 3.0640826525 3.0786768432 3.0932710339 3.1078652246 3.1224594153 2.9619233175 
2.9765175082 2.991111699 3.0057058897 3.0203000804 3.0348942711 3.0494884618 3.0640826525 3.0786768432 3.0932710339 
3.1078652246 3.1224594153 2.9619233175 2.9765175082 2.991111699 3.0057058897 3.0203000804 3.0348942711 3.0494884618 
3.0640826525 3.0786768432 3.0932710339 3.1078652246 3.1224594153 2.9619233175 2.9765175082 2.991111699 3.0057058897 