# vtk DataFile Version 4.2
vtk output
ASCII
DATASET UNSTRUCTURED_GRID
POINTS 1740 double
2144.07 -94.44003 0 2911 0 0 16.54298 -37.82236 0 
5.09149 -21.30132 0 1.27433 -10.75385 0 0 0 0 
2.54575 15.14293 0 6.36291 23.76126 0 14.00014 34.89063 0 
30.50239 50.70793 0 33.39435 -52.93479 0 2050.91 -103.7862 0 
60.1465 -69.72165 0 88.83633 -83.2817 0 118.7656 -94.71113 0 
153.4168 -105.7022 0 199.5806 -117.771 0 261.4466 -130.7139 0 
345.846 -144.1892 0 460.3522 -157.0592 0 608.4185 -167.1903 0 
783.2313 -172.4016 0 941.0559 -172.4533 0 1063.409 -170.1096 0 
1164.153 -166.8746 0 1263.449 -162.682 0 1375.468 -156.8941 0 
1513.293 -148.414 0 1665.281 -137.5317 0 1791.864 -127.3721 0 
2195.451 -89.09491 0 2273.924 -80.67077 0 2383.731 -68.3513 0 
2517.64 -52.47337 0 2649.227 -35.9232 0 2740.773 -23.82991 0 
2804.387 -15.13419 0 2848.802 -8.916218 0 2881.944 -4.196067 0 
56.61447 67.79801 0 84.09687 81.25172 0 112.4783 92.48395 0 
142.1748 102.3504 0 174.8563 111.6168 0 213.124 120.8806 0 
260.3759 130.5151 0 324.6539 141.1779 0 418.1422 152.9178 0 
535.6656 162.9871 0 690.9154 170.4255 0 902.6513 172.7852 0 
1100.32 169.0517 0 1270.99 162.3262 0 1462.794 151.6837 0 
1631.287 140.0952 0 1747.993 131 0 1922.788 115.9027 0 
2069.56 101.951 0 2128.804 96.0021 0 2297.147 78.11721 0 
2414.379 64.80104 0 2554.023 47.99319 0 2673.693 32.73885 0 
2757.97 21.50315 0 2814.297 13.7575 0 2852.02 8.460961 0 
2882.272 4.148909 0 1791.052 127.4402 0 1366.894 157.3738 0 
1444.38 -152.8302 0 1547.039 146.1296 0 1589.287 -143.1614 0 
1878.731 119.8675 0 1997.072 108.9828 0 1185.654 166.0472 0 
1882.536 -119.5292 0 1971.323 -111.4145 0 1684.777 136.0292 0 
2099.317 -98.9855 0 2234.809 84.9091 0 2181.695 90.53914 0 
1728.573 -132.5703 0 1718.815 133.3509 0 1834.825 123.7132 0 
1960.305 112.4444 0 2033.69 105.4648 0 2099.184 98.99892 0 
2214.291 -82.619697248 396.8421 2955.512 6.9506357487 396.8421 158.0786 -30.576519716 396.8421 
147.0109 -14.719508515 396.8421 143.3217 -4.5859690766 396.8421 142.09 5.7532179712 396.8421 
144.5505 20.324204252 396.8421 148.2398 28.623362614 396.8421 155.621 39.347640375 396.8421 
171.5701 54.603317661 396.8421 174.3652 -45.063070649 396.8421 2124.254 -91.52856182 396.8421 
200.2206 -61.13148059 396.8421 227.9488 -74.090915875 396.8421 256.8748 -84.998088489 396.8421 
290.3647 -95.471071332 396.8421 334.981 -106.94979429 396.8421 394.7733 -119.22937324 396.8421 
476.3434 -131.96794719 396.8421 587.0114 -144.06309734 396.8421 730.1145 -153.47479604 396.8421 
899.0676 -158.14736732 396.8421 1051.602 -157.94193891 396.8421 1169.853 -155.52455343 396.8421 
1267.221 -152.30160858 396.8421 1363.188 -148.17961295 396.8421 1471.452 -142.53580241 396.8421 
1604.657 -134.32014273 396.8421 1751.55 -123.83244924 396.8421 1873.891 -114.07868422 396.8421 
2263.949 -77.530108367 396.8421 2339.792 -69.515751186 396.8421 2445.918 -57.809202711 396.8421 
2575.338 -42.741085018 396.8421 2702.515 -27.053892422 396.8421 2790.992 -15.600718496 396.8421 
2852.473 -7.369242441 396.8421 2895.4 -1.4849713877 396.8421 2927.431 2.981034969 396.8421 
196.807 71.10638709 396.8421 223.3682 84.113541232 396.8421 250.7983 94.984558688 396.8421 
279.4994 104.54331284 396.8421 311.0855 113.53007382 396.8421 348.0705 122.52466743 396.8421 
393.7383 131.89257362 396.8421 455.8617 142.28074413 396.8421 546.2162 153.75504115 396.8421 
659.8003 163.65386486 396.8421 809.846 171.06611287 396.8421 1014.485 173.64224593 396.8421 
1205.528 170.28951481 396.8421 1370.477 163.98713068 396.8421 1555.851 153.89099309 396.8421 
1718.696 142.8234596 396.8421 1831.49 134.10403684 396.8421 2000.426 119.58318178 396.8421 
2142.278 106.1220954 396.8421 2199.537 100.37195758 396.8421 2362.236 83.051367062 396.8421 
2475.539 70.126334894 396.8421 2610.501 53.781113218 396.8421 2726.16 38.919832175 396.8421 
2807.613 27.958959994 396.8421 2862.05 20.396064397 396.8421 2898.509 15.221507584 396.8421 
2927.749 11.007045839 396.8421 1873.106 130.68503353 396.8421 1463.165 159.30026847 396.8421 
1538.054 -138.59260982 396.8421 1637.272 148.59357632 396.8421 1678.104 -129.25183258 396.8421 
1957.846 123.40160665 396.8421 2072.22 112.91123297 396.8421 1288 167.48760871 396.8421 
1961.524 -106.5677012 396.8421 2047.334 -98.810172779 396.8421 1770.393 138.928564 396.8421 
2171.038 -86.950948888 396.8421 2301.989 89.634523382 396.8421 2250.655 95.086467489 396.8421 
1812.721 -119.06541396 396.8421 1803.29 136.36007473 396.8421 1915.411 127.10199302 396.8421 
2036.686 116.24986929 396.8421 2107.61 109.5157259 396.8421 2170.909 103.26941368 396.8421 
2284.511 -70.133313443 793.6842 3000.027 14.78603953 793.6842 299.6143 -22.27870152 793.6842 
288.9304 -7.0566437737 793.6842 285.3691 2.6813853951 793.6842 284.1801 12.62467726 793.6842 
286.5551 26.650249631 793.6842 290.1167 34.645477235 793.6842 297.2417 44.984490751 793.6842 
312.6379 59.707335755 793.6842 315.336 -36.166425354 793.6842 2197.597 -78.620973242 793.6842 
340.2947 -51.547449821 793.6842 367.0612 -63.932515567 793.6842 394.9839 -74.340623096 793.6842 
427.3123 -84.31902132 793.6842 470.3812 -95.235419864 793.6842 528.0998 -106.88437638 793.6842 
606.8411 -118.92514338 793.6842 713.6708 -130.29080669 793.6842 851.8104 -139.03168882 793.6842 
1014.904 -143.21110149 793.6842 1162.147 -142.78015479 793.6842 1276.298 -140.30761358 793.6842 
1370.288 -137.10829985 793.6842 1462.927 -133.06506209 793.6842 1567.436 -127.57119458 793.6842 
1696.021 -119.62165035 793.6842 1837.82 -109.52405735 793.6842 1955.917 -100.16731258 793.6842 
2332.447 -65.289377298 793.6842 2405.659 -57.668323395 793.6842 2508.105 -46.548917844 793.6842 
2633.037 -32.254893855 793.6842 2755.801 -17.391059257 793.6842 2841.209 -6.5479286687 793.6842 
2900.561 1.2413568602 793.6842 2941.997 6.8079304454 793.6842 2972.917 11.032004573 793.6842 
336.9995 75.655315022 793.6842 362.6396 88.241869816 793.6842 389.1182 98.773860571 793.6842 
416.8239 108.04494893 793.6842 447.3145 116.7712193 793.6842 483.0167 125.51603998 793.6842 
527.1009 134.6377397 793.6842 587.0697 144.77397478 793.6842 674.2905 156.0072647 793.6842 
783.9349 165.75471149 793.6842 928.7766 173.14885462 793.6842 1126.317 175.92707564 793.6842 
1310.735 172.92044456 793.6842 1469.963 166.99838405 793.6842 1648.908 157.38996951 793.6842 
1806.105 146.78622885 793.6842 1914.987 138.40087631 793.6842 2078.064 124.39336929 793.6842 
2214.996 111.37107511 793.6842 2270.269 105.79940966 793.6842 2427.326 88.98891241 793.6842 
2536.699 76.421256806 793.6842 2666.98 60.504146355 793.6842 2778.628 46.012290737 793.6842 
2857.255 35.313406774 793.6842 2909.806 27.926657821 793.6842 2945.001 22.870623931 793.6842 
2973.224 18.751567114 793.6842 1955.16 135.10703415 793.6842 1559.437 162.54887834 793.6842 
1631.729 -123.75020203 793.6842 1727.505 152.32117626 793.6842 1766.921 -114.73621403 793.6842 
2036.96 128.08118694 793.6842 2147.368 117.94276802 793.6842 1390.347 170.30101387 793.6842 
2040.511 -92.979050138 793.6842 2123.346 -85.567660765 793.6842 1856.009 143.04339062 793.6842 
2242.759 -74.258309417 793.6842 2369.167 95.382712886 793.6842 2319.614 100.67371997 793.6842 
1896.869 -104.94764826 793.6842 1887.765 140.57263914 793.6842 1995.998 131.65222501 793.6842 
2113.066 121.17170962 793.6842 2181.531 114.65696696 793.6842 2242.634 108.60754841 793.6842 
2354.732 -57.688599869 1190.526 3044.539 22.89124731 1190.526 441.15 -13.61906613 1190.526 
430.8497 0.99239957539 1190.526 427.4164 10.34948423 1190.526 426.2701 19.911059839 1190.526 
428.5601 33.410114074 1190.526 431.9934 41.111627857 1190.526 438.8627 51.078040913 1190.526 
453.7057 65.28495054 1190.526 456.3069 -26.932270348 1190.526 2270.94 -65.778253018 1190.526 
480.3688 -41.655477282 1190.526 506.1737 -53.492485196 1190.526 533.0934 -63.425737558 1190.526 
564.26 -72.934911926 1190.526 605.7815 -83.319669194 1190.526 661.4265 -94.375053439 1190.526 
737.3385 -105.76336502 1190.526 840.33 -116.45305093 1190.526 973.5064 -124.58148386 1190.526 
1130.74 -128.32291839 1190.526 1272.693 -127.70406213 1190.526 1382.742 -125.19820312 1190.526 
1473.356 -122.03589047 1190.526 1562.666 -118.080433 1190.526 1663.42 -112.74172945 1190.526 
1787.385 -105.0582655 1190.526 1924.09 -95.342069529 1190.526 2037.944 -86.368442958 1190.526 
2400.946 -53.07610334 1190.526 2471.527 -45.824855262 1190.526 2570.292 -35.255831389 1190.526 
2690.735 -21.685115141 1190.526 2809.091 -7.5884849783 1190.526 2891.43 2.6873734481 1190.526 
2948.647 10.065928778 1190.526 2988.597 15.337561086 1190.526 3018.403 19.337170966 1190.526 
477.1918 80.694702589 1190.526 501.9109 92.872833606 1190.526 527.4382 103.07518686 1190.526 
554.1485 112.06612365 1190.526 583.5435 120.53824577 1190.526 617.963 129.03903489 1190.526 
660.4633 137.91932458 1190.526 718.2775 147.80715676 1190.526 802.3645 158.79991085 1190.526 
908.0698 168.39025975 1190.526 1047.707 175.75053831 1190.526 1238.151 178.69859874 1190.526 
1415.942 176.00030277 1190.526 1569.449 170.42249191 1190.526 1741.965 161.26027186 1190.526 
1893.514 151.08470216 1190.526 1998.484 143.01021489 1190.526 2155.702 129.48490662 1190.526 
2287.714 116.87972604 1190.526 2341.001 111.47922721 1190.526 2492.415 95.163361613 1190.526 
2597.858 82.947634702 1190.526 2723.46 67.458562684 1190.526 2831.095 53.342381674 1190.526 
2906.899 42.913725576 1190.526 2957.56 35.710563286 1190.526 2991.49 30.778903353 1190.526 
3018.699 26.760469145 1190.526 2037.214 139.83350612 1190.526 1655.708 166.18963085 1190.526 
1725.403 -109.04380101 1190.526 1817.738 156.40206263 1190.526 1855.738 -100.35246403 1190.526 
2116.075 133.04957807 1190.526 2222.516 123.24411057 1190.526 1492.694 173.54561486 1190.526 
2119.498 -79.489137972 1190.526 2199.357 -72.40731304 1190.526 1941.625 147.48299406 1190.526 
2314.479 -61.618893765 1190.526 2436.346 101.37257994 1190.526 2388.573 106.50765531 1190.526 
1981.017 -90.949949158 1190.526 1972.24 145.10325455 1190.526 2076.584 136.49885349 1190.526 
[...]
POINT_DATA 1740
FIELD FieldData 1
Pressure 1 1740 double
3.1044831468 3.0183612165 3.0089424015 2.9856952678 2.9792922992 2.9616877353 2.9728147675 2.9899455806 3.0209675457 
3.0357249405 3.0100734281 3.108264582 3.0322605255 3.0466186552 3.0637486164 3.0627810351 3.0802948327 3.0855337932 
3.1054717628 3.1115937763 3.1292645015 3.1370784225 3.1395427226 3.1438338787 3.1397343388 3.1358322109 3.1325928635 
3.1292752614 3.1237092394 3.118667479 3.1018340488 3.0985017795 3.092828654 3.0849292252 3.074037416 3.064059854 
3.0541719434 3.0456622021 3.0365065774 3.0715591313 3.0831973543 3.095736585 3.1096942333 3.1167200507 3.1222011801 
3.1296494581 3.1372139757 3.1528719154 3.1651140558 3.1830054242 3.194330108 3.2003603282 3.2065953578 3.2129196143 
3.2166146331 3.2192907825 3.2202977263 3.2329126261 3.099467519 3.0853399064 3.0800272266 3.0715967046 3.0624166665 
3.0519487508 3.0416541929 3.0341168985 3.0314681102 3.2192906944 3.2103953765 3.1317095704 3.2137446319 3.1267524116 
3.2199680288 3.2221547402 3.2066887468 3.1149355735 3.1114688023 3.2171936099 3.1063833668 3.0883059 3.0844441299 
3.1209758167 3.218858481 3.2200003163 3.221374192 3.2215897882 3.1705420269 3.1016269375 3.0232771176 3.0277369014 
3.0011537132 3.0077988224 2.9869699875 2.9945810784 3.0062408362 3.0349784175 3.0537292833 3.0336902867 3.1058516215 
3.0541365051 3.0665355346 3.0801289064 3.0842595197 3.0991931102 3.1085628312 3.1213919984 3.1267471379 3.1358204467 
3.1402771359 3.1427959327 3.1427853662 3.1392696337 3.134819538 3.1302372916 3.1259682424 3.1208084895 3.116112138 
3.099287851 3.0953559509 3.089711051 3.0820317816 3.0711043929 3.0610506671 3.0513242409 3.0437447358 3.0279073378 
3.0868601325 3.1082919349 3.120939513 3.129160298 3.1388686127 3.1432424935 3.1487007672 3.1597948776 3.1712441746 
3.179515547 3.1899263548 3.1979290815 3.2037360946 3.2101676198 3.2137702854 3.2167881412 3.2188307174 3.2211730522 
3.1070592291 3.0895034863 3.0887456443 3.0831389032 3.0751093747 3.0650335742 3.0550019983 3.0450890596 3.0383815046 
3.0392714325 3.2195407407 3.2122559164 3.1291070098 3.2159741161 3.1233374658 3.2209019101 3.2219496873 3.2082725819 
3.1122087139 3.1087221292 3.2177157961 3.1039986354 3.0906389909 3.0878860416 3.1186174823 3.2183763061 3.219844601 
3.2215022434 3.2274843059 3.0833576132 3.0997159313 3.0236141742 3.0276858059 3.0001980412 3.0029416244 2.9852669698 
2.997168715 3.0110066074 3.0396977889 3.0613377176 3.0418782527 3.1038110272 3.0568257108 3.0757156546 3.0939218401 
3.1006209295 3.1127119733 3.1204765373 3.1333931201 3.1393443706 3.1453631191 3.1472235105 3.1465412256 3.1444513037 
3.1393068215 3.1338649208 3.1293994507 3.1239485233 3.118874956 3.1142456788 3.0973659417 3.0937102455 3.0878067341 
3.0803223815 3.0690805112 3.0589561915 3.0495990644 3.0425293381 3.0279195252 3.095091007 3.1168282837 3.1356683522 
3.1447074642 3.1532838646 3.1630621556 3.1730343152 3.1773376325 3.1864249755 3.195971439 3.2022729932 3.208219612 
3.2102404561 3.2164871058 3.2195645882 3.220108928 3.2213712265 3.2238192531 3.0897090818 3.0939285192 3.0890580537 
3.0839661317 3.0764574526 3.0662328123 3.0566690579 3.0470672716 3.0399746988 3.041840406 3.2222463184 3.2184019569 
3.127087607 3.2199281923 3.1212159603 3.2229865967 3.2235240122 3.2137574901 3.1103756382 3.1067952482 3.2203628731 
3.1021401934 3.0917446376 3.0939587686 3.1167377626 3.2207685722 3.2230026633 3.2240699457 3.1107020982 3.0949104371 
3.0983400951 3.0241160041 3.028022719 3.0001764583 3.0028751436 2.9831969279 2.9934252381 3.007990019 3.0403915643 
3.0624796719 3.0410389937 3.1025048041 3.0610844868 3.078514008 3.0973344176 3.1061968387 3.1179324869 3.1265128512 
3.1384000591 3.145129353 3.1508689666 3.1514988167 3.1493895409 3.1457227558 3.139877954 3.1342619739 3.1290571572 
3.1232718612 3.117834032 3.1128359829 3.0961550703 3.0925036725 3.0868837513 3.0793989227 3.0682927979 3.0582014318 
3.0492349356 3.042250238 3.0281218113 3.0993720935 3.1228896429 3.1382607604 3.1504429144 3.1586018843 3.1692806025 
3.1821274822 3.1918422531 3.2003013762 3.2092952587 3.2150104647 3.2199375722 3.2203478347 3.2254664542 3.227235994 
3.2270632051 3.2276657628 3.2297939433 3.0911531888 3.0902954522 3.0880836403 3.083623347 3.0762592332 3.0664349342 
3.0570882496 3.0478270474 3.0404998884 3.0426808153 3.228073449 3.2267803128 3.1264860444 3.2273255825 3.1204595895 
3.228323179 3.1038360743 3.2230383467 3.1091153213 3.1054535265 3.2270767334 3.100680514 3.0901614417 3.0909659361 
3.1154585749 3.2270909235 3.2284262335 3.2286822458 3.0887603134 3.0914938759 3.0974224225 3.0240660557 3.0303642483 
3.0010655182 3.0086251261 2.9877074225 2.9958144464 3.0093461369 3.0426709823 3.0639757145 3.0419991755 3.1014340232 
3.0635675074 3.0807257417 3.0976110062 3.1073403564 3.1196833055 3.129941013 3.1408003093 3.1481930268 3.1541290013 
3.1536214626 3.1503092115 3.1455584905 3.1392162722 3.1333916269 3.1278995687 3.1224341328 3.116692869 3.1117102991 
3.0952434281 3.0915915039 3.08612181 3.0786684391 3.0678712259 3.0579274905 3.0491704147 3.042088418 3.0287281447 
3.100885618 3.1250405894 3.1400659898 3.1535039861 3.162394315 3.1739865934 3.186075707 3.1914485477 3.2032078457 
3.2155475296 3.2241272302 3.2289486746 3.2299967726 3.2344017148 3.2355369491 3.2347028105 3.2350087127 3.2430603086 
3.0884371961 3.0892579559 3.0870803396 3.0824838489 3.0750460868 3.0655084234 3.0563563071 3.0472350923 3.039908554 
3.0425846364 3.2351980775 3.2354313423 3.1256629915 3.235200373 3.1194837962 3.2348220528 3.0839257296 3.2324074947 
3.1080861599 3.1044160501 3.2345389192 3.0994992878 3.0888254677 3.0893222677 3.1142703121 3.234607996 3.2357183239 
3.1072602602 3.0873107941 3.0890256207 3.0966285136 3.0232397993 3.031651896 3.002738305 3.0109208257 2.9887066063 
2.9973270928 3.0108462068 3.0437466699 3.0661153928 3.0431526588 3.1005589573 3.0649028435 3.0825502227 3.0986746992 
3.1088407103 3.1211849946 3.1321440686 3.1430746174 3.1503951112 3.1567709653 3.1550760727 3.1507030432 3.1449710586 
3.1383479049 3.132387185 3.1268081533 3.1213958446 3.1157787447 3.1106999496 3.0944411079 3.0907751524 3.0854275545 
3.0779996285 3.0674385393 3.0575804414 3.0490070301 3.0417943672 3.0294181588 3.1025932289 3.1270839754 3.1421911454 
3.1557480855 3.1648718298 3.1769246711 3.190112662 3.1974611456 3.2093162669 3.2210625584 3.231468857 3.2367070019 
3.2387968406 3.2435399152 3.2447512724 3.2432010593 3.242940973 3.187697804 3.0863841071 3.0862090235 3.0843616469 
3.0799077429 3.0727233227 3.0635092739 3.0545873792 3.0457967569 3.0385681173 3.0411815104 3.2428849792 3.2445276395 
3.1246127393 3.2440559539 3.1184758073 3.2404338512 3.0842018421 3.2413576459 3.1071016181 3.1034456676 3.2427076955 
3.0987093306 3.0862160932 3.0864151481 3.1132772784 3.2425726344 3.2427801697 3.0824637747 3.0857788234 3.0862275996 
3.095978177 3.0225205509 3.0321090616 3.0030868786 3.0108500787 2.9882524897 2.9973008168 3.0109183601 3.0439990766 
3.0666860609 3.0436481535 3.0998149304 3.0655122705 3.0834355678 3.0994516056 3.1099955607 3.1223003748 3.1337617118 
3.1444553019 3.1517645856 3.1583331789 3.1558311211 3.1507444001 3.1443362861 3.13767806 3.1317123507 3.1260651665 
3.1206544598 3.1149815981 3.1099324394 3.0937953708 3.0901482795 3.084904803 3.0775020234 3.067094796 3.0572942524 
3.0488290448 3.0415252685 3.0300046242 3.1031775171 3.1280143811 3.1435072509 3.1571688371 3.166573148 3.1787594635 
3.1919049363 3.2000752525 3.2124936379 3.2254565952 3.2367409283 3.2436785125 3.2466477402 3.2527071383 3.254281813 
3.2526954787 3.2518759863 3.1055865806 3.0855250334 3.0845382307 3.0817421131 3.0774545288 3.0704741283 3.0614433653 
3.0526702523 3.0441271392 3.0369549138 3.0398091239 3.2516348225 3.2534166042 3.1238786969 3.253802284 3.117709259 
3.2509092415 3.0840174509 3.2495303695 3.1063528652 3.1026831007 3.2519747725 3.0979938923 3.0837342116 3.0841972841 
3.1124884684 3.251548393 3.2519061206 3.0866062007 3.0850953674 3.085030052 3.0955320298 3.0221525344 3.0325618863 
3.0033679427 3.0109628674 2.9884939021 2.9974651186 3.010977085 3.0443252311 3.0670152284 3.0439829159 3.099415029 
3.0658663848 3.0838314866 3.0997036221 3.1105618771 3.1228245465 3.1347142059 3.1451147845 3.1524795815 3.1591728871 
3.1561701047 3.1505277514 3.1437572523 3.1371893862 3.1312142666 3.1255430834 3.1201488734 3.1145199814 3.1095020468 
3.0934028157 3.0897850658 3.0846275886 3.0772409459 3.0669521099 3.0571821453 3.0487694453 3.041385965 3.0303323812 
3.1035345694 3.1285453698 3.1443238692 3.1580732014 3.1676591926 3.1798962199 3.1930458427 3.2019866492 3.2147836176 
3.2281601749 3.2401574406 3.2483153078 3.2528276947 3.2593713547 3.2618799033 3.2616009277 3.2607382047 3.1079887454 
3.0836418862 3.0827260831 3.0797538842 3.0754406825 3.0684960642 3.0597005284 3.0511199889 3.0427585554 3.0357103043 
3.0386369581 3.2604482616 3.2613969265 3.1234003419 3.2619376357 3.1172321615 3.2580887034 3.0832145105 3.2562153123 
3.1059354267 3.1022542736 3.2610444845 3.0975670559 3.0813812561 3.0819934406 3.1120004293 3.2604995662 3.2609404788 
3.0870246711 3.0830754686 3.0834595742 3.0954477805 3.0221648595 3.0329687631 3.0036527864 3.0110770956 2.9888376239 
2.9979284151 3.0113922756 3.0448258664 3.0675584014 3.0440856311 3.0993386417 3.0659661334 3.0838904388 3.0996872025 
3.1108671385 3.1230866754 3.13533388 3.1454754128 3.1529728323 3.1596961878 3.1563729265 3.1503997515 3.1434349543 
3.1369909265 3.1309909973 3.1253555891 3.1198505073 3.1143566085 3.1093654763 3.0933055309 3.0896968746 3.0845814645 
3.0772114995 3.0669965914 3.0571249993 3.0487547152 3.0413304999 3.0303601699 3.1041012675 3.1291596861 3.1452476812 
3.1590395612 3.1687167514 3.1809736903 3.1940269062 3.2034855153 3.2166879364 3.2302619908 3.2426182636 3.2520725467 
3.2572987995 3.2646660665 3.2688519394 3.2683723245 3.2682877863 3.1171091404 3.079340791 3.0786937918 3.0767785747 
3.0728052504 3.0663606575 3.0579664197 3.0496882938 3.0415602624 3.0347584018 3.037738336 3.2689318181 3.2669547437 
3.1231304378 3.2685988025 3.1170266055 3.2663076909 3.0782886724 3.2610024197 3.1057936125 3.1021531776 3.2682806413 
3.0974513027 3.0780649946 3.0782183732 3.1118607435 3.2680471708 3.269282063 3.0824852732 3.0786725482 3.0794661899 
3.0954778652 3.0226431575 3.0332653556 3.0038965618 3.0110592167 2.9891810292 2.9984642779 3.0119481791 3.0454255774 
3.0682451518 3.0440279267 3.0992938145 3.0656991948 3.083704786 3.0995844777 3.1110401353 3.1231667283 3.1356057365 
3.1455971751 3.1532729267 3.1601219764 3.1566653343 3.1505801387 3.1436164649 3.1372492987 3.1311417382 3.1255692927 
3.1199180839 3.1144852351 3.1094667126 3.0933389614 3.0897665644 3.084684321 3.077308379 3.0671470301 3.0572035695 
3.0488222768 3.0413871162 3.030317418 3.1049053039 3.1299731783 3.1462796761 3.1601349803 3.1699321034 3.1821519258 
3.1951148619 3.2049516334 3.2185410302 3.2321593849 3.2447582246 3.254642449 3.2606219695 3.2684397617 3.2729716032 
3.2741113402 3.2744566505 3.1423580338 3.0760064784 3.0757799156 3.0743738175 3.0708685437 3.0650395113 3.0567985926 
3.0487027838 3.0408643251 3.0342846361 3.0372673112 3.2747029358 3.2712101434 3.1232357741 3.2739255541 3.1171348111 
3.2715351278 3.0762331721 3.2645330332 3.1059379207 3.1022057949 3.2740237795 3.0974054493 3.0754787386 3.0751607515 
3.1119723476 3.2740009985 3.2750770255 3.0809382111 3.0752360798 3.076403754 3.0957188089 3.0234011567 3.0334850475 
3.004076561 3.0109502329 2.9896008117 2.9991254213 3.0125906744 3.0461605197 3.0690328381 3.043352131 3.0996402411 
3.0649108938 3.083115878 3.0991651406 3.1108822958 3.1228543936 3.1354061427 3.1455462384 3.1534904974 3.1604078141 
3.1569881172 3.151013577 3.1439572528 3.1376957099 3.1315074673 3.1259739105 3.1202743782 3.1149565457 3.1098712998 
3.0936427758 3.0900670161 3.0849551934 3.0775688065 3.0673973837 3.0574202576 3.0490048103 3.0415653841 3.0304559328 
3.1059879444 3.1310165967 3.1474831028 3.1614358327 3.171299289 3.183495216 3.1964101792 3.2064908436 3.2204561762 
3.2340102251 3.246819361 3.2568796364 3.2630797175 3.2712615926 3.2762803648 3.2778342784 3.2784302824 3.1959978961 
3.0747096268 3.0752066372 3.0734781484 3.0701165775 3.0646723801 3.0563097689 3.0482955283 3.0406270234 3.0342514445 
3.0370265014 3.279002901 3.2741843122 3.1236052236 3.277357696 3.1175207212 3.2761880553 3.0742482183 3.2670940133 
3.10630809 3.1027100793 3.278086136 3.0976608033 3.0746015721 3.0742898725 3.1124113255 3.2781720315 3.2793110389 
3.0864583497 3.0750132439 3.075051467 3.0962303135 3.0238008375 3.0334818682 3.0041763893 3.010969263 2.9900884789 
3.0001129334 3.0133740955 3.0470897988 3.0699559073 3.0424793606 3.1001740408 3.0638700279 3.0821950948 3.0983090127 
3.1100509952 3.1221263074 3.1347492217 3.1452899121 3.1537831234 3.1602548389 3.1571690247 3.1515051659 3.1445776369 
3.1383560354 3.1320930251 3.1265350635 3.1209643564 3.1154330851 3.1103463678 3.0941408705 3.0905042967 3.0853592438 
3.0779208524 3.0677287307 3.057715179 3.0492613766 3.0418036924 3.0306354064 3.1073728607 3.1323207434 3.1489013212 
3.1629773921 3.172884316 3.1850579718 3.1979332803 3.2082429311 3.2225832844 3.2359548241 3.2489029642 3.2590320704 
3.2652318639 3.2736099265 3.2787965044 3.2807135289 3.2814746386 3.2520198265 3.0736247652 3.0735347021 3.0724564419 
3.0690493841 3.063511505 3.0551350761 3.0472839069 3.0396169717 3.0335198885 3.0360538265 3.2822444493 3.2766661252 
3.1242532436 3.2800896625 3.1180835561 3.2835815609 3.072794827 3.2692179326 3.1068273905 3.1032662855 3.281065343 
3.0981565145 3.0736483242 3.0733001754 3.1128771499 3.2811824084 3.2823612768 3.0798209364 3.0728904488 3.0742528675 
3.0968315493 3.0233779419 3.0332053514 3.0040495362 3.010959085 2.9906339019 3.0013238314 3.0142720332 3.0485665844 
3.0712616101 3.0413660224 3.1007903557 3.0626259959 3.0811691986 3.0965908724 3.1082053151 3.120688515 3.1334830779 
3.1448201973 3.1537233467 3.1602972515 3.157692771 3.1523672062 3.145601378 3.1393434628 3.1329738849 3.1273451598 
3.1219135541 3.1161070053 3.1109745042 3.094684891 3.0909915088 3.0857995417 3.078318072 3.0680849031 3.0580469083 
3.0495465377 3.042060563 3.0310190295 3.1092000143 3.1341136828 3.1506798833 3.1648718151 3.1747716699 3.1869308008 
3.1997669819 3.2102369119 3.2249830176 3.2381061319 3.251092467 3.2612624956 3.2673483172 3.2756178314 3.2810202074 
3.2830508598 3.2838911831 3.239522376 3.0707111843 3.0702838819 3.0694758331 3.0657611767 3.0599183723 3.0519608639 
3.0443838598 3.0368145347 3.0310876029 3.0335588008 3.2846744081 3.2788230493 3.1252072241 3.2823136741 3.1189657574 
3.2852500168 3.0718843966 3.2712295713 3.1072478192 3.103759668 3.2834390198 3.0987468886 3.0705773265 3.0708139513 
3.1135070118 3.283587399 3.2853391582 3.082626801 3.0702076193 3.0719872113 3.0975678749 3.022473987 3.032940902 
3.0036990726 3.0108510649 2.9912044657 3.0024917604 3.0151559451 3.0504958465 3.0730164183 3.0401601946 3.1016597188 
3.0613896761 3.0801550587 3.0948206151 3.1062815112 3.1191702816 3.132078371 3.144393068 3.1536429913 3.1603405436 
3.15846453 3.1536597589 3.147036629 3.1406319774 3.1341205252 3.1283483397 3.1229702351 3.1170000189 3.1118044604 
3.0954164728 3.091652302 3.0863565283 3.0788400394 3.0685247509 3.0584344258 3.0498643628 3.0423590605 3.0315291958 
3.1114848492 3.1363218572 3.1527567075 3.1670562125 3.1769274976 3.1891473205 3.2019785647 3.2125141951 3.227662543 
3.2404553714 3.2534000948 3.2635053724 3.269493422 3.2775679908 3.2831111947 3.2852309135 3.2861012142 3.1237338085 
3.0660385448 3.0664240088 3.0648787796 3.0612740403 3.0553067771 3.0479931161 3.0406789247 3.033516761 3.02825455 
3.0305379326 3.2869077982 3.2808749705 3.1263512806 3.2844856528 3.1200850622 3.2857416522 3.0655840838 3.2732610699 
3.1081485751 3.1046307793 3.2856364861 3.099557198 3.0660243422 3.065971569 3.1143847724 3.2857611909 3.2877779636 
3.0715729606 3.06612212 3.066374124 3.0985199042 3.022579432 3.0327072117 3.0031289236 3.0106739518 2.9918278236 
3.0035132113 3.0159818718 3.0523689145 3.0748632124 3.0391285099 3.1027017089 3.0601685648 3.0791659835 3.0933674448 
3.1046345119 3.1178601258 3.1305160873 3.1440924788 3.1534928844 3.1605567457 3.1598278504 3.1554456688 3.1489330927 
3.1422076951 3.1354643281 3.1294273068 3.1241342435 3.1182051124 3.1129273297 3.0963462535 3.0924959885 3.0871110453 
3.0795152676 3.0690748657 3.0588676034 3.0502076461 3.0426529944 3.0316288232 3.1139183178 3.1386855092 3.1548268627 
3.1693288999 3.1791590617 3.1913382616 3.2043247771 3.2148522542 3.2301812546 3.2427328049 3.2554681489 3.2656783703 
3.2716656322 3.2795334723 3.2853131999 3.2878862715 3.2887994067 3.0712296739 3.0625320247 3.0627869083 3.0621942474 
3.0592664336 3.0541342484 3.0469564802 3.0396457103 3.0328027509 3.0276992264 3.0297056524 3.2897254223 3.2828674803 
3.1275425579 3.2867416944 3.1212618882 3.2882301729 3.0624893476 3.275340376 3.1092892365 3.1058028347 3.2880583852 
3.100563705 3.0633822221 3.0629629748 3.1156092116 3.2883524205 3.2903226037 3.0635385537 3.062486526 3.0623299463 
3.0995157775 3.0240120475 3.0307531111 3.0014957437 3.0099343915 2.9912375561 3.0032356252 3.0161355661 3.0528545907 
3.0759383958 3.037690921 3.1037661071 3.0584765237 3.0776176246 3.0921462591 3.1033812764 3.1167527927 3.1288795114 
3.1442546566 3.1528933801 3.1611878171 3.1619743993 3.1578431116 3.1514852525 3.144192824 3.1371032067 3.1309258514 
3.1254104119 3.1201943913 3.1143564743 3.0972631116 3.0932897749 3.0879147167 3.0801423094 3.0695529192 3.0591703032 
3.0504414176 3.0428150982 3.0308620735 3.1153644441 3.1406185818 3.1562878967 3.1706091816 3.1805827783 3.1931075636 
3.2063008336 3.2167755828 3.23187034 3.2447121333 3.2578182671 3.2674840737 3.273985283 3.2821221022 3.2889192554 
3.2910962726 3.2911568408 3.0594679533 3.0664857639 3.0666172527 3.0664725848 3.0629187748 3.0580261748 3.0503229821 
3.0428726824 3.0358706745 3.0307613679 3.0323540068 3.2916063487 3.2857432463 3.1289454706 3.2903035435 3.1224395468 
3.2866017589 3.0634723464 3.2776630154 3.1107526114 3.107012983 3.2913427713 3.1015327903 3.0674711299 3.0667661205 
3.1171026806 3.2915269624 3.3019679197 3.0562830512 3.0658581088 3.0661634602 3.1001275786 3.0256137185 3.0292495507 
2.9986162177 3.0049394143 2.9907746487 3.0015450811 3.0151239598 3.0517309117 3.0755293525 3.0362313137 3.1043974284 
3.057391991 3.0767551617 3.0921332936 3.1027138556 3.1166270403 3.12775089 3.1453782904 3.155185561 3.1636577163 
3.1668164476 3.1617968192 3.1553972941 3.1465994585 3.1390407861 3.1324365114 3.1261791237 3.1199263446 3.1152178466 
3.0982175241 3.0940366013 3.0886317192 3.080853975 3.0700282997 3.0592909027 3.0504577335 3.0425683093 3.0296291949 
3.1150193192 3.1406662097 3.1567772865 3.1715936307 3.1817244073 3.1939243389 3.2074716819 3.2187340327 3.2345974804 
3.2480646315 3.2610856755 3.2736846806 3.2782201903 3.2858477802 3.2911406516 3.2918349059 3.2903748273 3.0613381907 
3.0711147686 3.0703339288 3.0703407352 3.0677137226 3.0626927157 3.0545621852 3.0474370816 3.0403446481 3.0347901545 
3.0369211061 3.3073629797 3.2892734138 3.1296462524 3.2915536088 3.1231241535 3.0525851384 3.0702582356 3.2815422527 
3.1111542037 3.1075524956 3.2913746704 3.1022095989 3.071334852 3.071475568 3.1176632419 3.2907462629 3.2241749937 
3.0612455652 3.0701606702 3.0706855253 3.1003143506 3.0292561383 3.0319443155 3.0025374652 3.0059545126 2.9901758254 
3.0013859986 3.0160870633 3.0494274211 3.0730176612 3.0400019337 3.1035290405 3.0616819956 3.0807364213 3.0951456985 
3.1064984618 3.1203014422 3.1326389046 3.1513798992 3.1700367182 3.1716923189 3.1720558407 3.1655752447 3.1564385046 
3.1462397715 3.13862044 3.1313600803 3.1252662923 3.1184565708 3.1131115974 3.0971059798 3.0946687726 3.0890916207 
3.0794991306 3.0700462886 3.0587529017 3.0497843611 3.0408863222 3.0286010473 3.1107822475 3.1382398913 3.1611375295 
3.1757718303 3.1846022578 3.2042544729 3.2131175882 3.2237933658 3.2411036136 3.2543110325 3.2702792584 3.2777809557 