# vtk DataFile Version 4.2
vtk output
ASCII
DATASET POLYDATA
POINTS 6629 float
2596.09 -2483.1 5800 2609.9 -2491.33 5800 2638.9 -2491.47 5800 
2647.99 -2483.1 5800 2574.29 -2470.1 5800 2580.9 -2474.04 5800 
2662.13 -2470.1 5800 2552.48 -2457.1 5800 2667.9 -2464.78 5800 
2676.26 -2457.1 5800 2530.67 -2444.1 5800 2551.9 -2456.76 5800 
2690.39 -2444.1 5800 2508.87 -2431.1 5800 2522.9 -2439.47 5800 
2696.91 -2438.1 5800 2704.77 -2431.09 5800 2487.06 -2418.1 5800 
2493.9 -2422.18 5800 2720.11 -2418.09 5800 2465.25 -2405.1 5800 
2725.91 -2413.39 5800 2736.16 -2405.09 5800 2443.45 -2392.1 5800 
2464.9 -2404.89 5800 2752.21 -2392.09 5800 2427.3 -2379.1 5800 
2435.9 -2387.6 5800 2754.91 -2389.9 5800 2768.26 -2379.09 5800 
2411.02 -2366.1 5800 2783.91 -2366.41 5800 2784.31 -2366.09 5800 
2395.66 -2353.1 5800 2406.9 -2363.31 5800 2800.37 -2353.08 5800 
2380.01 -2340.1 5800 2812.92 -2342.92 5800 2816.42 -2340.08 5800 
2362.77 -2327.1 5800 2377.9 -2338.42 5800 2832.47 -2327.08 5800 
2348.54 -2314.1 5800 2348.9 -2314.42 5800 2841.92 -2319.43 5800 
2848.52 -2314.08 5800 2334.32 -2301.1 5800 2864.57 -2301.08 5800 
2320.09 -2288.1 5800 2870.92 -2295.93 5800 2880.62 -2288.08 5800 
2305.87 -2275.1 5800 2319.9 -2287.92 5800 2896.68 -2275.07 5800 
2291.65 -2262.09 5800 2899.93 -2272.44 5800 2912.73 -2262.07 5800 
2277.42 -2249.09 5800 2290.91 -2261.42 5800 2928.78 -2249.07 5800 
2263.2 -2236.09 5800 2928.93 -2248.95 5800 2944.83 -2236.07 5800 
2248.97 -2223.09 5800 2261.91 -2234.91 5800 2957.93 -2225.46 5800 
2960.51 -2223.07 5800 2234.75 -2210.09 5800 2974.9 -2210.07 5800 
2222.62 -2197.09 5800 2232.91 -2208.41 5800 2986.93 -2199.62 5800 
2989.68 -2197.07 5800 2218.11 -2184.09 5800 3003.64 -2184.06 5800 
2215.84 -2171.09 5800 3015.94 -2172.62 5800 3017.6 -2171.06 5800 
2214.47 -2158.09 5800 3031.57 -2158.06 5800 2214.58 -2145.09 5800 
3040.23 -2145.06 5800 2215.51 -2132.09 5800 3042.77 -2132.06 5800 
2216.44 -2119.09 5800 3044.23 -2119.06 5800 2217.37 -2106.09 5800 
3044.94 -2111.42 5800 3045.44 -2106.06 5800 2218.3 -2093.08 5800 
3046.66 -2093.06 5800 2219.23 -2080.08 5800 3047.87 -2080.05 5800 
2220.16 -2067.08 5800 3048.78 -2067.05 5800 2218.62 -2054.08 5800 
3049.48 -2054.05 5800 2216.67 -2041.08 5800 3050.11 -2041.05 5800 
2214.72 -2028.08 5800 3050.73 -2028.05 5800 2212.77 -2015.08 5800 
3051.35 -2015.05 5800 2210.82 -2002.08 5800 3051.97 -2002.05 5800 
2208.88 -1989.08 5800 3052.6 -1989.05 5800 2206.93 -1976.08 5800 
3053.22 -1976.05 5800 2204.98 -1963.07 5800 3053.84 -1963.05 5800 
2203.03 -1950.07 5800 2203.93 -1956.04 5800 3054.46 -1950.04 5800 
2201.08 -1937.07 5800 3055.08 -1937.04 5800 2199.13 -1924.07 5800 
3055.7 -1924.04 5800 2197.19 -1911.07 5800 3056.33 -1911.04 5800 
2195.24 -1898.07 5800 3056.95 -1898.04 5800 2193.29 -1885.07 5800 
3057.57 -1885.04 5800 2191.34 -1872.07 5800 3058.19 -1872.04 5800 
2189.39 -1859.07 5800 3058.81 -1859.04 5800 2187.44 -1846.07 5800 
3059.43 -1846.04 5800 2185.49 -1833.07 5800 3060.06 -1833.04 5800 
2183.55 -1820.06 5800 3060.68 -1820.03 5800 2181.6 -1807.06 5800 
3061.3 -1807.03 5800 2179.65 -1794.06 5800 3061.92 -1794.03 5800 
2177.53 -1781.06 5800 3062.54 -1781.03 5800 2175.62 -1768.06 5800 
3063.16 -1768.03 5800 2173.8 -1755.06 5800 2174.94 -1762.64 5800 
3063.79 -1755.03 5800 2171.86 -1742.06 5800 3064.41 -1742.03 5800 
2169.94 -1729.06 5800 3066.44 -1729.03 5800 2168.03 -1716.06 5800 
3069.81 -1716.03 5800 2166.13 -1703.06 5800 3073.97 -1708.99 5800 
3078.66 -1703.02 5800 2164.22 -1690.06 5800 3087.54 -1690.02 5800 
2162.32 -1677.05 5800 3098.03 -1677.02 5800 2158.58 -1664.05 5800 
3102.98 -1670.89 5800 3108.52 -1664.02 5800 2155.81 -1651.05 5800 
3119.01 -1651.02 5800 2153.55 -1638.05 5800 3129.5 -1638.02 5800 
2151.67 -1625.05 5800 3131.98 -1634.94 5800 3139.99 -1625.02 5800 
2150.07 -1612.05 5800 3150.48 -1612.02 5800 2148.71 -1599.05 5800 
3160.97 -1599.01 5800 2147.53 -1586.05 5800 3160.99 -1599 5800 
3171.46 -1586.01 5800 2146.5 -1573.05 5800 3181.95 -1573.01 5800 
2142.47 -1560.05 5800 2145.95 -1570.11 5800 3189.99 -1563.05 5800 
3192.44 -1560.01 5800 2138.27 -1547.05 5800 3202.19 -1547.01 5800 
2135.58 -1534.04 5800 3208.97 -1534.01 5800 2135.33 -1521.04 5800 
3215.05 -1521.01 5800 2132.6 -1508.04 5800 3218.99 -1512.59 5800 
3220.74 -1508.01 5800 2130.1 -1495.04 5800 3224.84 -1495 5800 
2129.56 -1482.04 5800 3227.99 -1482 5800 2129.73 -1469.04 5800 
3230.5 -1469 5800 2129.56 -1456.04 5800 3232.23 -1456 5800 
2128.7 -1443.04 5800 3232.65 -1443 5800 2127.85 -1430.04 5800 
3233.07 -1430 5800 2126.99 -1417.04 5800 3233.49 -1417 5800 
2126.14 -1404.03 5800 3233.91 -1404 5800 2125.28 -1391.03 5800 
3234.34 -1391 5800 2124.43 -1378.03 5800 3234.76 -1377.99 5800 
2123.57 -1365.03 5800 3235.18 -1364.99 5800 2122.72 -1352.03 5800 
3235.6 -1351.99 5800 2121.86 -1339.03 5800 3236.02 -1338.99 5800 
2121.01 -1326.03 5800 3236.44 -1325.99 5800 2120.15 -1313.03 5800 
3236.86 -1312.99 5800 2119.3 -1300.03 5800 3237.28 -1299.99 5800 
2118.44 -1287.03 5800 3237.73 -1286.99 5800 2117.62 -1274.03 5800 
3238.23 -1273.99 5800 2116.88 -1261.02 5800 2116.98 -1262.72 5800 
3238.72 -1260.99 5800 2116.15 -1248.02 5800 3239.2 -1247.98 5800 
2115.41 -1235.02 5800 3239.68 -1234.98 5800 2114.68 -1222.02 5800 
3240.15 -1221.98 5800 2113.94 -1209.02 5800 3240.61 -1208.98 5800 
2113.21 -1196.02 5800 3241.06 -1195.98 5800 2112.47 -1183.02 5800 
3241.51 -1182.98 5800 2111.74 -1170.02 5800 3242.09 -1169.98 5800 
2111.01 -1157.02 5800 3242.7 -1156.98 5800 2110.27 -1144.02 5800 
3243.31 -1143.98 5800 2109.54 -1131.01 5800 3243.93 -1130.98 5800 
2108.8 -1118.01 5800 3244.54 -1117.97 5800 2108.07 -1105.01 5800 
3245.16 -1104.97 5800 2107.33 -1092.01 5800 3246.21 -1091.97 5800 
2105.01 -1079.01 5800 3247.46 -1078.97 5800 2102.11 -1066.01 5800 
3248.03 -1073.16 5800 3248.74 -1065.97 5800 2099.21 -1053.01 5800 
3250.12 -1052.97 5800 2096.31 -1040.01 5800 3251.49 -1039.97 5800 
2093.41 -1027.01 5800 3252.86 -1026.97 5800 2090.51 -1014.01 5800 
3254.24 -1013.97 5800 2088.25 -1001.01 5800 3255.61 -1000.96 5800 
2091.01 -988.004 5800 3256.98 -987.964 5800 2092.84 -975.003 5800 
3258.36 -974.963 5800 2094.79 -962.002 5800 3259.73 -961.962 5800 
2097.02 -949.001 5800 3261.11 -948.961 5800 2099.26 -936 5800 
3262.48 -935.96 5800 2101.51 -922.999 5800 3263.85 -922.958 5800 
2103.77 -909.997 5800 3263.39 -909.957 5800 2106.04 -896.996 5800 
3262.49 -896.956 5800 2108.32 -883.995 5800 3261.8 -883.956 5800 
2110.61 -870.994 5800 2561.99 -870.979 5800 2581.02 -877.891 5800 
2606.07 -870.977 5800 3259.57 -870.955 5800 2112.92 -857.993 5800 
2538.8 -857.978 5800 2552.02 -867.229 5800 2610.02 -869.886 5800 
2639.02 -861.394 5800 2648.52 -857.975 5800 3257.24 -857.954 5800 
2115.23 -844.992 5800 2520.55 -844.978 5800 2523.02 -846.935 5800 
2668.03 -850.955 5800 2692.01 -844.972 5800 3254.92 -844.953 5800 
2117.01 -835.017 5800 2117.52 -831.991 5800 2504.2 -831.978 5800 
2697.03 -843.311 5800 2726.03 -844.902 5800 2740.04 -831.969 5800 
3252.59 -831.952 5800 2119.63 -818.99 5800 2488.29 -818.977 5800 
2494.02 -823.847 5800 2751.24 -818.968 5800 3250.26 -818.951 5800 
2121.76 -805.989 5800 2472.99 -805.977 5800 2755.03 -813.862 5800 
2759.71 -805.967 5800 3248.05 -806.593 5800 3247.93 -805.95 5800 
2123.9 -792.988 5800 2452.24 -792.976 5800 2465.02 -800.095 5800 
2769.79 -792.966 5800 3245.07 -792.949 5800 2125.73 -779.987 5800 
2432.54 -779.976 5800 2436.02 -784.777 5800 2783.83 -779.964 5800 
3241.89 -779.948 5800 2126.54 -766.986 5800 2425.11 -766.975 5800 
2784.04 -779.778 5800 2797.88 -766.963 5800 3239.12 -766.947 5800 
2125.45 -753.985 5800 2417.69 -753.975 5800 2811.93 -753.961 5800 
3237.19 -753.946 5800 2123.9 -740.984 5800 2410.26 -740.974 5800 
2813.04 -752.953 5800 2827.89 -740.959 5800 3235.59 -740.945 5800 
2122.28 -727.983 5800 2402.46 -727.973 5800 2407.03 -735.31 5800 
2842.04 -729.909 5800 2844.54 -727.958 5800 3234.25 -727.944 5800 
2120.65 -714.982 5800 2395.09 -714.972 5800 2861.19 -714.956 5800 
3233.1 -714.943 5800 2119.03 -701.981 5800 2387.93 -701.972 5800 
2871.04 -703.742 5800 2871.84 -701.955 5800 3232.71 -701.943 5800 
2117.41 -688.98 5800 2380.42 -688.971 5800 2877.2 -688.954 5800 
3232.66 -688.942 5800 2118.28 -675.979 5800 2371.81 -675.97 5800 
2378.03 -684.832 5800 2882.55 -675.953 5800 3232.62 -675.941 5800 
2121.09 -662.978 5800 2363.65 -662.969 5800 2887.9 -662.951 5800 
3232.55 -662.94 5800 2124.01 -649.977 5800 2356.46 -649.969 5800 
2893.42 -649.95 5800 3232.48 -649.939 5800 2126.93 -636.976 5800 
2350.07 -636.968 5800 2899.03 -636.949 5800 3232.41 -636.938 5800 
2129.73 -623.975 5800 2342.17 -623.967 5800 2349.03 -635.687 5800 
2900.05 -634.605 5800 2904.79 -623.948 5800 3232.34 -623.937 5800 
2132.57 -610.973 5800 2336.05 -610.966 5800 2910.57 -610.947 5800 
3232.26 -610.936 5800 2135.46 -597.972 5800 2330.36 -597.966 5800 
2916.83 -597.945 5800 3232.19 -597.935 5800 2138.39 -584.971 5800 
2323.52 -584.965 5800 2925.06 -584.944 5800 3232.12 -584.934 5800 
2138.25 -571.97 5800 2316.71 -571.964 5800 2320.04 -578.392 5800 
2929.06 -578.622 5800 2932.87 -571.943 5800 3232.74 -571.932 5800 
2137.05 -558.969 5800 2309.99 -558.963 5800 2940 -558.942 5800 
3234.39 -558.932 5800 2136.34 -545.968 5800 2303.41 -545.963 5800 
2946.77 -545.94 5800 3236.03 -545.93 5800 2135.11 -532.967 5800 
2297.07 -532.962 5800 2572.72 -532.952 5800 2581.05 -536.047 5800 
2588.04 -532.952 5800 2953.22 -532.939 5800 3237.67 -532.929 5800 
2133.15 -519.966 5800 2290.79 -519.961 5800 2291.04 -520.454 5800 
2534.67 -519.953 5800 2552.05 -526.207 5800 2610.05 -522.085 5800 
2613.95 -519.95 5800 2958.06 -522.661 5800 2959.4 -519.938 5800 
3239.31 -519.928 5800 1682.02 -508.451 5800 1665.03 -506.982 5800 
1711.02 -510.959 5800 1740.02 -513.559 5800 1769.02 -516.02 5800 
1798.02 -511.79 5800 1826.38 -506.976 5800 2132.5 -506.965 5800 
2284.26 -506.96 5800 2495.39 -506.953 5800 2523.05 -515.771 5800 
2637.72 -506.948 5800 2965.63 -506.937 5800 3240.97 -506.927 5800 
[...]
POINT_DATA 6629
SCALARS Pressure double
LOOKUP_TABLE default
3.0932710339 3.0932710339 3.0932710339 3.0932710339 3.0932710339 3.0932710339 3.0932710339 3.0932710339 3.0932710339 
3.0932710339 3.0932710339 3.0932710339 3.0932710339 3.0932710339 3.0932710339 3.0932710339 3.0932710339 3.0932710339 
3.0932710339 3.0932710339 3.0932710339 3.0932710339 3.0932710339 3.0932710339 3.0932710339 3.0932710339 3.0932710339 
3.0932710339 3.0932710339 3.0932710339 3.0932710339 3.0932710339 3.0932710339 3.0932710339 3.0932710339 3.0932710339 
3.0932710339 3.0932710339 3.0932710339 3.0932710339 3.0932710339 3.0932710339 3.0932710339 3.0932710339 3.0932710339 
3.0932710339 3.0932710339 3.0932710339 3.0932710339 3.0932710339 3.0932710339 3.0932710339 3.0932710339 3.0932710339 
3.0932710339 3.0932710339 3.0932710339 3.0932710339 3.0932710339 3.0932710339 3.0932710339 3.0932710339 3.0932710339 
3.0932710339 3.0932710339 3.0932710339 3.0932710339 3.0932710339 3.0932710339 3.0932710339 3.0932710339 3.0932710339 
3.0932710339 3.0932710339 3.0932710339 3.0932710339 3.0932710339 3.0932710339 3.0932710339 3.0932710339 3.0932710339 
3.0932710339 3.0932710339 3.0932710339 3.0932710339 3.0932710339 3.0932710339 3.0932710339 3.0932710339 3.0932710339 
3.0932710339 3.0932710339 3.0932710339 3.0932710339 3.0932710339 3.0932710339 3.0932710339 3.0932710339 3.0932710339 
3.0932710339 3.0932710339 3.0932710339 3.0932710339 3.0932710339 3.0932710339 3.0932710339 3.0932710339 3.0932710339 
3.0932710339 3.0932710339 3.0932710339 3.0932710339 3.0932710339 3.0932710339 3.0932710339 3.0932710339 3.0932710339 
3.0932710339 3.0932710339 3.0932710339 3.0932710339 3.0932710339 3.0932710339 3.0932710339 3.0932710339 3.0932710339 
3.0932710339 3.0932710339 3.0932710339 3.0932710339 3.0932710339 3.0932710339 3.0932710339 3.0932710339 3.0932710339 
3.0932710339 3.0932710339 3.0932710339 3.0932710339 3.0932710339 3.0932710339 3.0932710339 3.0932710339 3.0932710339 
3.0932710339 3.0932710339 3.0932710339 3.0932710339 3.0932710339 3.0932710339 3.0932710339 3.0932710339 3.0932710339 
3.0932710339 3.0932710339 3.0932710339 3.0932710339 3.0932710339 3.0932710339 3.0932710339 3.0932710339 3.0932710339 
3.0932710339 3.0932710339 3.0932710339 3.0932710339 3.0932710339 3.0932710339 3.0932710339 3.0932710339 3.0932710339 
3.0932710339 3.0932710339 3.0932710339 3.0932710339 3.0932710339 3.0932710339 3.0932710339 3.0932710339 3.0932710339 
3.0932710339 3.0932710339 3.0932710339 3.0932710339 3.0932710339 3.0932710339 3.0932710339 3.0932710339 3.0932710339 
3.0932710339 3.0932710339 3.0932710339 3.0932710339 3.0932710339 3.0932710339 3.0932710339 3.0932710339 3.0932710339 
3.0932710339 3.0932710339 3.0932710339 3.0932710339 3.0932710339 3.0932710339 3.0932710339 3.0932710339 3.0932710339 
3.0932710339 3.0932710339 3.0932710339 3.0932710339 3.0932710339 3.0932710339 3.0932710339 3.0932710339 3.0932710339 
3.0932710339 3.0932710339 3.0932710339 3.0932710339 3.0932710339 3.0932710339 3.0932710339 3.0932710339 3.0932710339 
3.0932710339 3.0932710339 3.0932710339 3.0932710339 3.0932710339 3.0932710339 3.0932710339 3.0932710339 3.0932710339 
3.0932710339 3.0932710339 3.0932710339 3.0932710339 3.0932710339 3.0932710339 3.0932710339 3.0932710339 3.0932710339 
3.0932710339 3.0932710339 3.0932710339 3.0932710339 3.0932710339 3.0932710339 3.0932710339 3.0932710339 3.0932710339 
3.0932710339 3.0932710339 3.0932710339 3.0932710339 3.0932710339 3.0932710339 3.0932710339 3.0932710339 3.0932710339 
3.0932710339 3.0932710339 3.0932710339 3.0932710339 3.0932710339 3.0932710339 3.0932710339 3.0932710339 3.0932710339 
3.0932710339 3.0932710339 3.0932710339 3.0932710339 3.0932710339 3.0932710339 3.0932710339 3.0932710339 3.0932710339 
3.0932710339 3.0932710339 3.0932710339 3.0932710339 3.0932710339 3.0932710339 3.0932710339 3.0932710339 3.0932710339 
3.0932710339 3.1078652246 3.1078652246 3.1078652246 3.0932710339 3.0932710339 3.1078652246 3.1078652246 3.1078652246 
3.1078652246 3.1078652246 3.0932710339 3.0932710339 3.1078652246 3.1078652246 3.1078652246 3.1078652246 3.0932710339 
3.0932710339 3.0932710339 3.1078652246 3.1078652246 3.1078652246 3.1078652246 3.0932710339 3.0932710339 3.1078652246 
3.1078652246 3.1078652246 3.0932710339 3.0932710339 3.1078652246 3.1078652246 3.1078652246 3.0932710339 3.0932710339 
3.0932710339 3.1078652246 3.1078652246 3.1078652246 3.0932710339 3.0932710339 3.1078652246 3.1078652246 3.1078652246 
3.0932710339 3.0932710339 3.1078652246 3.1078652246 3.1078652246 3.0932710339 3.0932710339 3.1078652246 3.1078652246 
3.0932710339 3.0932710339 3.1078652246 3.1078652246 3.1078652246 3.0932710339 3.0932710339 3.1078652246 3.1078652246 
3.1078652246 3.1078652246 3.0932710339 3.0932710339 3.1078652246 3.1078652246 3.0932710339 3.0932710339 3.1078652246 
3.1078652246 3.1078652246 3.0932710339 3.0932710339 3.1078652246 3.1078652246 3.0932710339 3.0932710339 3.1078652246 
3.1078652246 3.1078652246 3.0932710339 3.0932710339 3.1078652246 3.1078652246 3.0932710339 3.0932710339 3.1078652246 
3.1078652246 3.0932710339 3.0932710339 3.1078652246 3.1078652246 3.0932710339 3.0932710339 3.1078652246 3.1078652246 
3.1078652246 3.1078652246 3.0932710339 3.0932710339 3.1078652246 3.1078652246 3.0932710339 3.0932710339 3.1078652246 
3.1078652246 3.0932710339 3.0932710339 3.1078652246 3.1078652246 3.0932710339 3.0932710339 3.1078652246 3.1078652246 
3.1078652246 3.1078652246 3.0932710339 3.0932710339 3.1078652246 3.1078652246 3.0932710339 3.0932710339 3.1078652246 
3.1078652246 3.0932710339 3.0932710339 3.1078652246 3.1224594153 3.1224594153 3.1224594153 3.1078652246 3.0932710339 
3.0932710339 3.1078652246 3.1078652246 3.1224594153 3.1224594153 3.1224594153 3.1224594153 3.1078652246 3.1078652246 
3.0932710339 3.0786768432 3.0786768432 3.0786768432 3.0786768432 3.0786768432 3.0786768432 3.0786768432 3.0932710339 
3.1078652246 3.1224594153 3.1224594153 3.1224594153 3.1078652246 3.0932710339 3.0786768432 3.0786768432 3.0786768432 
3.0786768432 3.0786768432 3.0786768432 3.0786768432 3.0786768432 3.0786768432 3.0786768432 3.0932710339 3.1078652246 
3.1224594153 3.1224594153 3.1224594153 3.1224594153 3.1224594153 3.1078652246 3.0932710339 3.0786768432 3.0786768432 
3.0786768432 3.0786768432 3.0786768432 3.0786768432 3.0932710339 3.1078652246 3.1224594153 3.1224594153 3.1224594153 
3.1078652246 3.0932710339 3.0786768432 3.0786768432 3.0786768432 3.0786768432 3.0786768432 3.0786768432 3.0786768432 
3.0932710339 3.1078652246 3.1224594153 3.1224594153 3.1224594153 3.1224594153 3.1078652246 3.0932710339 3.0786768432 
3.0786768432 3.0786768432 3.0786768432 3.0786768432 3.0932710339 3.1078652246 3.1224594153 3.1224594153 3.1078652246 
3.1078652246 3.0932710339 3.0786768432 3.0786768432 3.0786768432 3.0786768432 3.0786768432 3.0786768432 3.0786768432 
3.0932710339 3.1078652246 3.1224594153 3.1224594153 3.1224594153 3.1078652246 3.0932710339 3.0932710339 3.0786768432 
3.0786768432 3.0786768432 3.0786768432 3.0786768432 3.0932710339 3.1078652246 3.1078652246 3.1224594153 3.1224594153 
3.1224594153 3.1078652246 3.0932710339 3.0786768432 3.0786768432 3.0786768432 3.0786768432 3.0786768432 3.0786768432 
3.0786768432 3.0932710339 3.1078652246 3.1224594153 3.1224594153 3.1078652246 3.0932710339 3.0786768432 3.0786768432 
3.0786768432 3.0786768432 3.0932710339 3.0932710339 3.1078652246 3.1224594153 3.1224594153 3.1224594153 3.1224594153 
3.1078652246 3.0932710339 3.0786768432 3.0786768432 3.0786768432 3.0786768432 3.0786768432 3.0786768432 3.0932710339 
3.1078652246 3.1224594153 3.1224594153 3.1078652246 3.1078652246 3.0932710339 3.0786768432 3.0786768432 3.0786768432 
3.0786768432 3.0786768432 3.0786768432 3.0786768432 3.0932710339 3.1078652246 3.1224594153 3.1224594153 3.1224594153 
3.1078652246 3.0932710339 3.0786768432 3.0786768432 3.0786768432 3.0786768432 3.0786768432 3.0932710339 3.1078652246 
3.1224594153 3.1224594153 3.1078652246 3.0932710339 3.0786768432 3.0786768432 3.0786768432 3.0786768432 3.0932710339 
3.1078652246 3.1224594153 3.1224594153 3.1224594153 3.1078652246 3.0932710339 3.0786768432 3.0786768432 3.0786768432 
3.0786768432 3.0786768432 3.0786768432 3.0786768432 3.0932710339 3.1078652246 3.1224594153 3.1224594153 3.1224594153 
3.1078652246 3.0932710339 3.0786768432 3.0786768432 3.0786768432 3.0786768432 3.0932710339 3.1078652246 3.1224594153 
3.137053606 3.137053606 3.137053606 3.137053606 3.137053606 3.1224594153 3.1078652246 3.0932710339 3.0786768432 
3.0786768432 3.0786768432 3.0786768432 3.0786768432 3.0932710339 3.1078652246 3.1224594153 3.1224594153 3.137053606 
3.137053606 3.137053606 3.137053606 3.1224594153 3.1078652246 3.1078652246 3.0932710339 3.0786768432 3.0786768432 
3.0786768432 3.0786768432 3.0786768432 3.0932710339 3.1078652246 3.1224594153 3.137053606 3.137053606 3.137053606 
3.1224594153 3.1078652246 3.0932710339 3.0786768432 3.0786768432 3.0786768432 3.0786768432 3.0786768432 3.0932710339 
3.1078652246 3.1078652246 3.1224594153 3.137053606 3.137053606 3.137053606 3.137053606 3.1224594153 3.1224594153 
3.1078652246 3.0932710339 3.0786768432 3.0786768432 3.0786768432 3.0786768432 3.0786768432 3.0932710339 3.1078652246 
3.1224594153 3.137053606 3.137053606 3.137053606 3.1224594153 3.1078652246 3.0932710339 3.0786768432 3.0786768432 
3.0786768432 3.0786768432 3.0932710339 3.1078652246 3.1224594153 3.1224594153 3.137053606 3.137053606 3.1224594153 
3.1078652246 3.0932710339 3.0786768432 3.0786768432 3.0786768432 3.0786768432 3.0786768432 3.0932710339 3.1078652246 
3.1224594153 3.137053606 3.137053606 3.137053606 3.137053606 3.1224594153 3.1078652246 3.0932710339 3.0786768432 
3.0786768432 3.0786768432 3.0786768432 3.0786768432 3.0786768432 3.0932710339 3.1078652246 3.1224594153 3.137053606 
3.137053606 3.1224594153 3.1078652246 3.0932710339 3.0786768432 3.0786768432 3.0786768432 3.0786768432 3.0932710339 
3.1078652246 3.1224594153 3.137053606 3.137053606 3.137053606 3.1224594153 3.1078652246 3.0932710339 3.0786768432 
3.0786768432 3.0786768432 3.0786768432 3.0786768432 3.0640826525 3.0640826525 3.0640826525 3.0640826525 3.0640826525 
3.0640826525 3.0786768432 3.0932710339 3.1078652246 3.1224594153 3.137053606 3.137053606 3.1224594153 3.1224594153 
3.1078652246 3.0932710339 3.0786768432 3.0786768432 3.0786768432 3.0640826525 3.0640826525 3.0640826525 3.0640826525 
3.0640826525 3.0786768432 3.0932710339 3.1078652246 3.1224594153 3.1224594153 3.137053606 3.137053606 3.137053606 
3.1224594153 3.1078652246 3.0932710339 3.0786768432 3.0786768432 3.0786768432 3.0640826525 3.0640826525 3.0640826525 
3.0786768432 3.0932710339 3.1078652246 3.1078652246 3.1224594153 3.137053606 3.137053606 3.1516477967 3.1516477967 
3.1516477967 3.1516477967 3.1516477967 3.137053606 3.1224594153 3.1078652246 3.0932710339 3.0786768432 3.0786768432 
3.0786768432 3.0640826525 3.0640826525 3.0640826525 3.0786768432 3.0932710339 3.1078652246 3.1224594153 3.137053606 
3.1516477967 3.1516477967 3.1516477967 3.1516477967 3.137053606 3.1224594153 3.1078652246 3.0932710339 3.0786768432 
3.0786768432 3.0786768432 3.0786768432 3.0640826525 3.0640826525 3.0640826525 3.0786768432 3.0932710339 3.1078652246 
3.1224594153 3.137053606 3.137053606 3.1516477967 3.1516477967 3.1516477967 3.137053606 3.1224594153 3.1078652246 
3.0932710339 3.0786768432 3.0786768432 3.0786768432 3.0786768432 3.0640826525 3.0640826525 3.0786768432 3.0786768432 
3.0932710339 3.1078652246 3.1224594153 3.137053606 3.1516477967 3.1516477967 3.1516477967 3.1516477967 3.137053606 
3.1224594153 3.1078652246 3.0932710339 3.0786768432 3.0786768432 3.0786768432 3.0786768432 3.0640826525 3.0640826525 
3.0786768432 3.0932710339 3.1078652246 3.1224594153 3.1224594153 3.137053606 3.1516477967 3.1516477967 3.137053606 
3.1224594153 3.1078652246 3.0932710339 3.0786768432 3.0786768432 3.0786768432 3.0786768432 3.0786768432 3.0786768432 
3.0786768432 3.0786768432 3.0786768432 3.0640826525 3.0640826525 3.0786768432 3.0932710339 3.1078652246 3.1224594153 
3.137053606 3.1516477967 3.1516477967 3.1516477967 3.137053606 3.1224594153 3.1078652246 3.0932710339 3.0786768432 
3.0786768432 3.0786768432 3.0786768432 3.0640826525 3.0640826525 3.0494884618 3.0494884618 3.0494884618 3.0494884618 
3.0494884618 3.0494884618 3.0640826525 3.0640826525 3.0786768432 3.0932710339 3.1078652246 3.1224594153 3.137053606 
3.137053606 3.1516477967 3.1516477967 3.137053606 3.1224594153 3.1078652246 3.0932710339 3.0786768432 3.0786768432 
3.0786768432 3.0786768432 3.0786768432 3.0640826525 3.0494884618 3.0494884618 3.0494884618 3.0640826525 3.0786768432 
3.0932710339 3.1078652246 3.1224594153 3.137053606 3.1516477967 3.1516477967 3.1516477967 3.137053606 3.1224594153 
3.1078652246 3.0932710339 3.0932710339 3.0786768432 3.0640826525 3.0640826525 3.0640826525 3.0640826525 3.0640826525 
3.0786768432 3.0786768432 3.0640826525 3.0494884618 3.0494884618 3.0494884618 3.0640826525 3.0786768432 3.0932710339 
3.1078652246 3.1078652246 3.1224594153 3.1224594153 3.137053606 3.1516477967 3.1516477967 3.137053606 3.1224594153 
3.1078652246 3.0932710339 3.0786768432 3.0786768432 3.0640826525 3.0640826525 3.0786768432 3.0786768432 3.0786768432 
3.0640826525 3.0494884618 3.0494884618 3.0640826525 3.0786768432 3.0932710339 3.0932710339 3.1078652246 3.1224594153 
3.137053606 3.137053606 3.1516477967 3.1516477967 3.1516477967 3.1516477967 3.137053606 3.1224594153 3.1078652246 
3.0932710339 3.0786768432 3.0640826525 3.0640826525 3.0640826525 3.0640826525 3.0786768432 3.0786768432 3.0786768432 
3.0640826525 3.0494884618 3.0348942711 3.0348942711 3.0348942711 3.0348942711 3.0348942711 3.0494884618 3.0494884618 
3.0640826525 3.0786768432 3.0932710339 3.1078652246 3.1224594153 3.137053606 3.1516477967 2.9473291268 2.9473291268 
2.9619233175 2.9619233175 2.9765175082 2.9765175082 2.991111699 2.991111699 3.0057058897 3.0057058897 3.0203000804 
3.0203000804 3.0348942711 3.0348942711 3.0494884618 3.0494884618 3.0640826525 3.0640826525 3.0786768432 3.0786768432 
3.0932710339 3.0932710339 3.1078652246 3.1078652246 3.1224594153 3.1224594153 3.137053606 3.137053606 3.1516477967 
3.1516477967 2.9473291268 2.9619233175 2.9765175082 2.991111699 3.0057058897 3.0203000804 3.0348942711 3.0494884618 
3.0640826525 3.0786768432 3.0932710339 3.1078652246 3.1224594153 3.137053606 3.1516477967 2.9473291268 2.9619233175 
2.9765175082 2.991111699 3.0057058897 3.0203000804 3.0348942711 3.0494884618 3.0640826525 3.0786768432 3.0932710339 
3.1078652246 3.1224594153 3.137053606 3.1516477967 2.9473291268 2.9619233175 2.9765175082 2.991111699 3.0057058897 
3.0203000804 3.0348942711 3.0494884618 3.0640826525 3.0786768432 3.0932710339 3.1078652246 3.1224594153 3.137053606 
3.1516477967 2.9473291268 2.9619233175 2.9765175082 2.991111699 3.0057058897 3.0203000804 3.0348942711 3.0494884618 
3.0640826525 3.0786768432 3.0932710339 3.1078652246 3.1224594153 3.137053606 3.1516477967 2.9473291268 2.9619233175 
2.9765175082 2.991111699 3.0057058897 3.0203000804 3.0348942711 3.0494884618 3.0640826525 3.0786768432 3.0932710339 
3.1078652246 3.1224594153 3.137053606 3.1516477967 2.9473291268 2.9619233175 2.9765175082 2.991111699 3.0057058897 
3.0203000804 3.0348942711 3.0494884618 3.0640826525 3.0786768432 3.0932710339 3.1078652246 3.1224594153 3.137053606 
3.1516477967 2.9473291268 2.9619233175 2.9765175082 2.991111699 3.0057058897 3.0203000804 3.0348942711 3.0494884618 
3.0640826525 3.0786768432 3.0932710339 3.1078652246 3.1224594153 3.137053606 3.1516477967 2.9473291268 2.9619233175 
2.9765175082 2.991111699 3.0057058897 3.0203000804 3.0348942711 3.0494884618 3.0640826525 3.0786768432 3.0932710339 
3.1078652246 3.1224594153 3.137053606 3.1516477967 2.9473291268 2.9619233175 2.9765175082 2.991111699 3.0057058897 
3.0203000804 3.0348942711 3.0494884618 3.0640826525 3.0786768432 3.0932710339 3.1078652246 3.1224594153 3.137053606 
3.1516477967 2.9473291268 2.9619233175 2.9765175082 2.991111699 3.0057058897 3.0203000804 3.0348942711 3.0494884618 
3.0640826525 3.0786768432 3.0932710339 3.1078652246 3.1224594153 3.137053606 3.1516477967 2.9473291268 2.9619233175 
2.9765175082 2.991111699 3.0057058897 3.0203000804 3.0348942711 3.0494884618 3.0640826525 3.0786768432 3.0932710339 
3.1078652246 3.1224594153 3.137053606 2.9473291268 2.9619233175 2.9765175082 2.991111699 3.0057058897 3.0203000804 
3.0348942711 3.0494884618 3.0640826525 3.0786768432 3.0932710339 3.1078652246 3.1224594153 3.137053606 2.9473291268 
2.9619233175 2.9765175082 2.991111699 3.0057058897 3.0203000804 3.0348942711 3.0494884618 3.0640826525 3.0786768432 
3.0932710339 3.1078652246 3.1224594153 3.137053606 2.9473291268 2.9619233175 2.9765175082 2.991111699 3.0057058897 
3.0203000804 3.0348942711 3.0494884618 3.0640826525 3.0786768432 3.0932710339 3.1078652246 3.1224594153 2.9473291268 
2.9619233175 2.9765175082 2.991111699 3.0057058897 3.0203000804 3.0348942711 3.0494884618 3.0640826525 3.0786768432 
3.0932710339 3.1078652246 3.1224594153 3.1224594153 3.1078652246 3.0932710339 3.0786768432 3.0640826525 3.0640826525 
3.0640826525 3.0786768432 3.0786768432 3.0786768432 3.0640826525 3.0494884618 3.0348942711 3.0348942711 3.0494884618 
3.0640826525 3.0786768432 3.0932710339 3.1078652246 2.9473291268 2.9473291268 2.9619233175 2.9619233175 2.9765175082 
2.9765175082 2.991111699 2.991111699 3.0057058897 3.0057058897 3.0203000804 3.0203000804 3.0348942711 3.0348942711 
3.0494884618 3.0494884618 3.0640826525 3.0640826525 3.0786768432 3.0786768432 3.0932710339 3.0932710339 3.1078652246 
3.1078652246 3.1224594153 2.9473291268 2.9619233175 2.9765175082 2.991111699 3.0057058897 3.0203000804 3.0348942711 
3.0494884618 3.0640826525 3.0786768432 3.0932710339 3.1078652246 3.1224594153 3.137053606 2.9473291268 2.9619233175 
2.9765175082 2.991111699 3.0057058897 3.0203000804 3.0348942711 3.0494884618 3.0640826525 3.0786768432 3.0932710339 
3.1078652246 3.1224594153 3.137053606 2.9473291268 2.9619233175 2.9765175082 2.991111699 3.0057058897 3.0203000804 
3.0348942711 3.0494884618 3.0640826525 3.0786768432 3.0932710339 3.1078652246 3.1224594153 3.137053606 3.1516477967 
2.9473291268 2.9619233175 2.9765175082 2.991111699 3.0057058897 3.0203000804 3.0348942711 3.0494884618 3.0640826525 
3.0786768432 3.0932710339 3.1078652246 3.1224594153 2.9473291268 2.9619233175 2.9765175082 2.991111699 3.0057058897 
3.0203000804 3.0348942711 3.0494884618 3.0640826525 3.0786768432 3.0932710339 3.1078652246 3.1224594153 2.9473291268 
2.9619233175 2.9765175082 2.991111699 3.0057058897 3.0203000804 3.0348942711 3.0494884618 3.0640826525 3.0786768432 
3.0932710339 3.1078652246 3.1224594153 2.9473291268 2.9619233175 2.9765175082 2.991111699 3.0057058897 3.0203000804 
3.0348942711 3.0494884618 3.0640826525 3.0786768432 3.0932710339 3.1078652246 3.1224594153 2.9473291268 2.9619233175 
2.9765175082 2.991111699 3.0057058897 3.0203000804 3.0348942711 3.0494884618 3.0640826525 3.0786768432 3.0932710339 
3.1078652246 3.1224594153 2.9473291268 2.9619233175 2.9765175082 2.991111699 3.0057058897 3.0203000804 3.0348942711 
3.0494884618 3.0640826525 3.0786768432 3.0932710339 3.1078652246 2.9473291268 2.9619233175 2.9765175082 2.991111699 
3.0057058897 3.0203000804 3.0348942711 3.0494884618 3.0640826525 3.0786768432 3.0932710339 3.1078652246 2.9473291268 
2.9619233175 2.9765175082 2.991111699 3.0057058897 3.0203000804 3.0348942711 3.0494884618 3.0640826525 3.0786768432 
3.0932710339 3.1078652246 3.1078652246 3.0932710339 3.0786768432 3.0640826525 3.0640826525 3.0640826525 3.0786768432 
3.0786768432 3.0786768432 3.0640826525 3.0494884618 3.0348942711 3.0348942711 3.0203000804 3.0203000804 3.0203000804 
3.0203000804 3.0348942711 3.0494884618 3.0640826525 2.9473291268 2.9473291268 2.9619233175 2.9619233175 2.9765175082 
2.9765175082 2.991111699 2.991111699 3.0057058897 3.0057058897 3.0203000804 3.0203000804 3.0348942711 3.0348942711 
3.0494884618 3.0494884618 3.0640826525 3.0640826525 3.0786768432 3.0932710339 2.9473291268 2.9619233175 2.9765175082 