# vtk DataFile Version 4.2
vtk output
ASCII
DATASET POLYDATA
POINTS 7515 float
1623.71 -2907.13 0 1627.87 -2910.54 0 1649.93 -2907.13 0 
1582.4 -2890.13 0 1590.87 -2893.61 0 1664.87 -2905.01 0 
1701.88 -2900.78 0 1738.88 -2896.55 0 1775.88 -2892.32 0 
1795.12 -2890.12 0 1541.1 -2873.13 0 1553.87 -2878.38 0 
1812.88 -2888.09 0 1849.88 -2883.86 0 1886.88 -2879.63 0 
1923.88 -2875.4 0 1943.85 -2873.12 0 1499.8 -2856.13 0 
1516.87 -2863.16 0 1960.88 -2871.17 0 1997.89 -2866.94 0 
2034.89 -2862.71 0 2071.89 -2858.48 0 2092.59 -2856.11 0 
1458.49 -2839.13 0 1479.87 -2847.93 0 2108.89 -2854.25 0 
2145.89 -2850.02 0 2182.89 -2845.79 0 2219.89 -2841.56 0 
2221.38 -2839.11 0 1417.19 -2822.13 0 1442.87 -2832.7 0 
2224.07 -2822.11 0 1375.89 -2805.13 0 1405.87 -2817.47 0 
2227.18 -2805.1 0 1334.58 -2788.13 0 1368.87 -2802.24 0 
2230.29 -2788.1 0 1293.28 -2771.13 0 1294.87 -2771.78 0 
1331.87 -2787.01 0 2233.4 -2771.1 0 1251.97 -2754.13 0 
1257.87 -2756.56 0 2236.5 -2754.1 0 1210.67 -2737.13 0 
1220.87 -2741.33 0 2239.61 -2737.1 0 1169.37 -2720.13 0 
1183.87 -2726.1 0 2242.72 -2720.1 0 1128.06 -2703.13 0 
1146.87 -2710.87 0 2245.82 -2703.1 0 1097.11 -2686.13 0 
1109.87 -2695.64 0 2248.93 -2686.1 0 1079.65 -2669.13 0 
2252.04 -2669.1 0 1062.71 -2652.13 0 1072.87 -2662.33 0 
2255.15 -2652.09 0 1045.77 -2635.13 0 2256.91 -2642.47 0 
2258.25 -2635.09 0 1028.83 -2618.13 0 1035.87 -2625.19 0 
2261.36 -2618.09 0 1011.89 -2601.13 0 2264.47 -2601.09 0 
994.956 -2584.13 0 998.875 -2588.06 0 2267.57 -2584.09 0 
978.018 -2567.12 0 2270.68 -2567.09 0 961.556 -2550.12 0 
961.876 -2550.92 0 2273.79 -2550.09 0 954.825 -2533.12 0 
2276.9 -2533.09 0 948.229 -2516.12 0 2280 -2516.09 0 
941.763 -2499.12 0 2283.11 -2499.09 0 935.424 -2482.12 0 
2286.22 -2482.08 0 929.207 -2465.12 0 2289.32 -2465.08 0 
923.119 -2448.12 0 924.881 -2453.09 0 2292.43 -2448.08 0 
917.092 -2431.12 0 2293.92 -2439.95 0 2295.54 -2431.08 0 
911.065 -2414.12 0 2298.65 -2414.08 0 905.038 -2397.12 0 
2301.75 -2397.08 0 899.011 -2380.12 0 2304.86 -2380.08 0 
892.984 -2363.11 0 2307.97 -2363.08 0 886.957 -2346.11 0 
887.886 -2348.73 0 2311.07 -2346.08 0 880.93 -2329.11 0 
2314.18 -2329.07 0 874.903 -2312.11 0 2317.29 -2312.07 0 
868.876 -2295.11 0 2320.4 -2295.07 0 862.849 -2278.11 0 
2323.5 -2278.07 0 856.822 -2261.11 0 2326.61 -2261.07 0 
850.795 -2244.11 0 850.891 -2244.38 0 2330.93 -2246.77 0 
2331.7 -2244.07 0 844.768 -2227.11 0 2345.09 -2227.07 0 
838.741 -2210.11 0 2358.54 -2210.07 0 832.714 -2193.11 0 
2367.93 -2198.19 0 2371.99 -2193.06 0 826.687 -2176.11 0 
2385.43 -2176.06 0 820.66 -2159.1 0 2398.88 -2159.06 0 
814.633 -2142.1 0 2404.94 -2151.4 0 2412.33 -2142.06 0 
809.074 -2125.1 0 813.896 -2140.02 0 2425.78 -2125.06 0 
806.708 -2108.1 0 2439.22 -2108.06 0 804.804 -2091.1 0 
2441.94 -2104.62 0 2452.67 -2091.06 0 802.9 -2074.1 0 
2466.12 -2074.06 0 800.996 -2057.1 0 2478.95 -2057.84 0 
2479.36 -2057.05 0 799.092 -2040.1 0 2486.42 -2040.05 0 
797.188 -2023.1 0 2488.58 -2023.05 0 795.284 -2006.1 0 
2487.9 -2006.05 0 793.38 -1989.1 0 2487.23 -1989.05 0 
791.476 -1972.09 0 2486.55 -1972.05 0 789.572 -1955.09 0 
2485.87 -1955.05 0 787.668 -1938.09 0 2485.2 -1938.05 0 
785.764 -1921.09 0 2484.52 -1921.05 0 783.86 -1904.09 0 
2483.85 -1904.04 0 781.956 -1887.09 0 2483.17 -1887.04 0 
780.051 -1870.09 0 2482.49 -1870.04 0 778.147 -1853.09 0 
2481.82 -1853.04 0 776.243 -1836.09 0 776.913 -1842.06 0 
2481.14 -1836.04 0 774.339 -1819.09 0 2480.46 -1819.04 0 
771.85 -1802.09 0 2479.79 -1802.04 0 765.447 -1785.08 0 
2479.11 -1785.04 0 760.722 -1768.08 0 2478.96 -1781.28 0 
2478.44 -1768.04 0 755.946 -1751.08 0 2477.76 -1751.04 0 
750.122 -1734.08 0 2477.08 -1734.04 0 744.297 -1717.08 0 
2476.41 -1717.03 0 738.473 -1700.08 0 739.92 -1704.3 0 
2475.73 -1700.03 0 732.544 -1683.08 0 2475.05 -1683.03 0 
-481.111 -1672.26 0 -491.693 -1666.11 0 -444.111 -1682.59 0 
-407.109 -1672.58 0 -383.174 -1666.11 0 725.967 -1666.08 0 
2474.38 -1666.03 0 -518.111 -1650.76 0 -520.953 -1649.11 0 
-370.108 -1662.57 0 -333.106 -1652.51 0 -321.467 -1649.11 0 
717.949 -1649.08 0 2473.7 -1649.03 0 -550.212 -1632.11 0 
-296.105 -1641.98 0 -263.081 -1632.1 0 711.825 -1632.08 0 
2473.02 -1632.03 0 -555.111 -1629.26 0 -579.471 -1615.11 0 
-259.103 -1630.96 0 -222.101 -1619.66 0 -207.162 -1615.1 0 
706.636 -1615.08 0 2472.35 -1615.03 0 -592.111 -1607.77 0 
-608.73 -1598.11 0 -185.1 -1608.36 0 -151.475 -1598.1 0 
702.281 -1598.07 0 702.925 -1601.35 0 2471.78 -1598.03 0 
-629.11 -1586.27 0 -637.989 -1581.11 0 -148.098 -1597.07 0 
-111.096 -1585.77 0 -95.7876 -1581.1 0 698.935 -1581.07 0 
2472.22 -1581.03 0 -666.11 -1564.77 0 -667.249 -1564.11 0 
-74.0946 -1574.47 0 -64.2107 -1564.09 0 695.588 -1564.07 0 
2473.42 -1564.03 0 -696.508 -1547.11 0 -47.2248 -1547.09 0 
692.242 -1547.07 0 2474.63 -1547.02 0 -703.11 -1543.27 0 
-725.767 -1530.11 0 -37.0914 -1537.42 0 -32.2137 -1530.09 0 
688.896 -1530.07 0 2475.83 -1530.02 0 -740.109 -1521.78 0 
-755.026 -1513.11 0 -21.0366 -1513.09 0 685.55 -1513.07 0 
2477.03 -1513.02 0 -774.937 -1496.11 0 -10.855 -1496.09 0 
682.203 -1496.07 0 2478.23 -1496.02 0 -777.109 -1493.55 0 
-786.632 -1479.11 0 -1.45884 -1479.09 0 678.857 -1479.07 0 
2478.98 -1485.49 0 2479.44 -1479.02 0 -797.845 -1462.11 0 
-0.0868526 -1476.58 0 7.85124 -1462.09 0 675.511 -1462.07 0 
2480.64 -1462.02 0 -809.057 -1445.11 0 18.7617 -1445.08 0 
672.165 -1445.07 0 2481.84 -1445.02 0 -814.107 -1437.45 0 
-820.27 -1428.11 0 30.2583 -1428.08 0 668.818 -1428.07 0 
2483.05 -1428.02 0 -831.482 -1411.11 0 36.9175 -1419.51 0 
43.459 -1411.08 0 665.472 -1411.06 0 665.935 -1413.42 0 
2484.25 -1411.02 0 -842.695 -1394.1 0 56.6598 -1394.08 0 
662.126 -1394.06 0 1371.19 -1394.04 0 1405.96 -1398.56 0 
1442.96 -1399.69 0 1479.96 -1400.82 0 1516.96 -1401.95 0 
1533.81 -1394.04 0 2485.45 -1394.01 0 -851.104 -1381.35 0 
-853.907 -1377.1 0 69.8605 -1377.08 0 658.78 -1377.06 0 
1335.86 -1377.04 0 1368.95 -1393.7 0 1553.96 -1380.91 0 
1559.13 -1377.04 0 2486.66 -1377.01 0 -865.12 -1360.1 0 
73.9213 -1371.85 0 83.0612 -1360.08 0 655.433 -1360.06 0 
1302.08 -1360.04 0 1331.96 -1375.08 0 1581.83 -1360.04 0 
2487.86 -1360.01 0 -876.332 -1343.1 0 96.2619 -1343.08 0 
652.087 -1343.06 0 1268.3 -1343.04 0 1294.96 -1356.46 0 
1590.96 -1353.2 0 1604.53 -1343.04 0 2489.06 -1343.01 0 
-887.545 -1326.1 0 109.463 -1326.07 0 648.741 -1326.06 0 
1234.53 -1326.04 0 1257.96 -1337.84 0 1627.23 -1326.03 0 
2489.79 -1326.01 0 -888.102 -1325.26 0 -898.757 -1309.1 0 
110.925 -1324.19 0 122.663 -1309.07 0 643.388 -1309.06 0 
1208.93 -1309.04 0 1220.96 -1319.21 0 1627.97 -1325.49 0 
1649.94 -1309.03 0 2489.26 -1309.01 0 -909.97 -1292.1 0 
135.864 -1292.07 0 634.322 -1292.06 0 1184.71 -1292.04 0 
1664.97 -1297.77 0 1672.64 -1292.03 0 2488.87 -1292.01 0 
-921.182 -1275.1 0 147.929 -1276.53 0 149.065 -1275.07 0 
625.257 -1275.06 0 628.942 -1281.97 0 1163.31 -1275.04 0 
1183.96 -1291.61 0 1695.34 -1275.03 0 2486.69 -1275.01 0 
-925.1 -1269.16 0 -932.395 -1258.1 0 160.289 -1258.07 0 
616.192 -1258.06 0 1140.11 -1258.04 0 1146.96 -1263.06 0 
1701.97 -1270.66 0 1714.91 -1258.03 0 2483.18 -1258.01 0 
-943.607 -1241.1 0 167.601 -1241.07 0 607.362 -1241.06 0 
1116.9 -1241.04 0 1732.79 -1241.03 0 2479.67 -1241.01 0 
-954.82 -1224.1 0 172.772 -1224.07 0 601.521 -1224.06 0 
1093.7 -1224.04 0 1109.96 -1235.95 0 1738.97 -1233.71 0 
1746.33 -1224.02 0 2478.99 -1237.71 0 2476.17 -1224.01 0 
-962.097 -1213.06 0 -966.032 -1207.1 0 175.969 -1207.07 0 
596.764 -1207.05 0 1070.5 -1207.04 0 1072.96 -1208.84 0 
1759.36 -1207.02 0 2472.66 -1207 0 -977.245 -1190.1 0 
178.448 -1190.07 0 592.835 -1190.05 0 1047.3 -1190.04 0 
1772.26 -1190.02 0 2469.59 -1190 0 -988.457 -1173.1 0 
180.928 -1173.06 0 589.216 -1173.05 0 591.946 -1185.88 0 
1024.1 -1173.04 0 1035.96 -1181.73 0 1775.98 -1185 0 
1785.08 -1173.02 0 2467.4 -1173 0 -999.095 -1156.97 0 
-999.692 -1156.09 0 183.408 -1156.06 0 585.597 -1156.05 0 
1000.89 -1156.04 0 1797.99 -1156.02 0 2467.31 -1156 0 
-1010.97 -1139.09 0 184.938 -1145.57 0 185.887 -1139.06 0 
581.978 -1139.05 0 986.11 -1139.04 0 998.959 -1154.62 0 
1810.91 -1139.02 0 2467.23 -1139 0 -1022.09 -1122.09 0 
188.367 -1122.06 0 578.359 -1122.05 0 972.025 -1122.04 0 
1812.98 -1136.29 0 1823.82 -1122.02 0 2467.15 -1122 0 
-1036.09 -1106.47 0 -1037.05 -1105.09 0 190.846 -1105.06 0 
574.74 -1105.05 0 959.495 -1105.04 0 961.961 -1109.44 0 
1836.74 -1105.02 0 2467.11 -1105 0 -1042.99 -1088.09 0 
193.326 -1088.06 0 571.121 -1088.05 0 950.981 -1088.04 0 
1849.65 -1088.01 0 2467.06 -1088 0 -1045.49 -1071.09 0 
196.038 -1071.06 0 567.501 -1071.05 0 941.326 -1071.04 0 
1849.99 -1087.58 0 1860.99 -1071.01 0 2467.01 -1071 0 
-1047.75 -1054.09 0 203.113 -1054.06 0 563.882 -1054.05 0 
927.702 -1054.04 0 1870.65 -1054.01 0 2466.96 -1054 0 
-1049.8 -1037.09 0 210.189 -1037.06 0 560.263 -1037.05 0 
913.563 -1037.04 0 924.963 -1050.74 0 1879 -1037.01 0 
2466.91 -1036.99 0 -1051.67 -1020.09 0 217.265 -1020.05 0 
556.644 -1020.04 0 899.424 -1020.04 0 1886.24 -1020.01 0 
2466.87 -1019.99 0 -1053.38 -1003.09 0 221.947 -1008.8 0 
224.34 -1003.05 0 553.016 -1003.04 0 554.955 -1012.11 0 
885.285 -1003.04 0 887.965 -1006.26 0 1886.99 -1018.24 0 
1893.43 -1003.01 0 2466.82 -1002.99 0 -1054.95 -986.086 0 
230.586 -986.052 0 549.384 -986.043 0 871.146 -986.034 0 
1900.63 -986.007 0 2466.78 -985.991 0 -1056.54 -969.086 0 
234.596 -969.051 0 543.554 -969.042 0 857.006 -969.034 0 
1907.82 -969.005 0 2466.81 -968.99 0 -1058.74 -952.085 0 
237.488 -952.05 0 535.99 -952.042 0 842.867 -952.033 0 
850.966 -961.771 0 1915.26 -952.004 0 2465.29 -951.989 0 
-1060.94 -935.084 0 239.672 -935.049 0 529.135 -935.041 0 
828.728 -935.033 0 1924 -935.902 0 1924.48 -935.003 0 
2463.05 -934.988 0 -1063.14 -918.083 0 240.414 -918.047 0 
523.539 -918.04 0 814.589 -918.032 0 1933.92 -918.002 0 
2460.66 -917.987 0 -1065.34 -901.082 0 239.997 -901.047 0 
518.034 -901.039 0 802.364 -901.031 0 813.968 -917.285 0 
1943.36 -901 0 2458.26 -900.987 0 -1067.54 -884.081 0 
[...]
POINT_DATA 7515
SCALARS Pressure double
LOOKUP_TABLE default
3.0932710339 3.0932710339 3.0932710339 3.0932710339 3.0932710339 3.0932710339 3.0932710339 3.0932710339 3.0932710339 
3.0932710339 3.0932710339 3.0932710339 3.0932710339 3.0932710339 3.0932710339 3.0932710339 3.0932710339 3.0932710339 
3.0932710339 3.0932710339 3.0932710339 3.0932710339 3.0932710339 3.0932710339 3.0932710339 3.0932710339 3.0932710339 
3.0932710339 3.0932710339 3.0932710339 3.0932710339 3.0932710339 3.0932710339 3.0932710339 3.0932710339 3.0932710339 
3.0932710339 3.0932710339 3.0932710339 3.0932710339 3.0932710339 3.0932710339 3.0932710339 3.0932710339 3.0932710339 
3.0932710339 3.0932710339 3.0932710339 3.0932710339 3.0932710339 3.0932710339 3.0932710339 3.0932710339 3.0932710339 
3.0932710339 3.0932710339 3.0932710339 3.0932710339 3.0932710339 3.0932710339 3.0932710339 3.0932710339 3.0932710339 
3.0932710339 3.0932710339 3.0932710339 3.0932710339 3.0932710339 3.0932710339 3.0932710339 3.0932710339 3.0932710339 
3.0932710339 3.0932710339 3.0932710339 3.0932710339 3.0932710339 3.0932710339 3.0932710339 3.0932710339 3.0932710339 
3.0932710339 3.0932710339 3.0932710339 3.0932710339 3.0932710339 3.0932710339 3.0932710339 3.0932710339 3.0932710339 
3.0932710339 3.0932710339 3.0932710339 3.0932710339 3.0932710339 3.0932710339 3.0932710339 3.0932710339 3.0932710339 
3.0932710339 3.0932710339 3.0932710339 3.0932710339 3.0932710339 3.0932710339 3.0932710339 3.0932710339 3.0932710339 
3.0932710339 3.0932710339 3.0932710339 3.0932710339 3.0932710339 3.0932710339 3.0932710339 3.0932710339 3.0932710339 
3.0932710339 3.0932710339 3.0932710339 3.0932710339 3.0932710339 3.0932710339 3.0932710339 3.0932710339 3.0932710339 
3.0932710339 3.0932710339 3.0932710339 3.0932710339 3.0932710339 3.0932710339 3.0932710339 3.0932710339 3.0932710339 
3.0932710339 3.0932710339 3.0932710339 3.0932710339 3.0932710339 3.0932710339 3.0932710339 3.0932710339 3.0932710339 
3.0932710339 3.0932710339 3.0932710339 3.0932710339 3.0932710339 3.0932710339 3.0932710339 3.0932710339 3.0932710339 
3.0932710339 3.0932710339 3.0932710339 3.0932710339 3.0932710339 3.0932710339 3.0932710339 3.0932710339 3.0932710339 
3.0932710339 3.0932710339 3.0932710339 3.0932710339 3.0932710339 3.0932710339 3.0932710339 3.0932710339 3.0932710339 
3.0932710339 3.0932710339 3.0932710339 3.0932710339 3.0932710339 3.0932710339 3.0932710339 3.0932710339 3.0932710339 
3.0932710339 3.0932710339 3.0932710339 3.0932710339 3.0932710339 3.0932710339 3.0932710339 3.0932710339 3.0932710339 
3.0932710339 3.0932710339 3.0932710339 3.0932710339 3.0932710339 3.0932710339 3.0786768432 3.0786768432 3.0786768432 
3.0786768432 3.0786768432 3.0932710339 3.0932710339 3.0786768432 3.0786768432 3.0786768432 3.0786768432 3.0786768432 
3.0932710339 3.0932710339 3.0786768432 3.0786768432 3.0786768432 3.0932710339 3.0932710339 3.0786768432 3.0786768432 
3.0786768432 3.0786768432 3.0786768432 3.0932710339 3.0932710339 3.0786768432 3.0786768432 3.0786768432 3.0786768432 
3.0932710339 3.0932710339 3.0932710339 3.0786768432 3.0786768432 3.0786768432 3.0786768432 3.0786768432 3.0932710339 
3.0932710339 3.0786768432 3.0786768432 3.0786768432 3.0786768432 3.0932710339 3.0932710339 3.0786768432 3.0786768432 
3.0932710339 3.0932710339 3.0786768432 3.0786768432 3.0786768432 3.0786768432 3.0932710339 3.0932710339 3.0786768432 
3.0786768432 3.0786768432 3.0932710339 3.0932710339 3.0786768432 3.0786768432 3.0932710339 3.0932710339 3.0786768432 
3.0786768432 3.0786768432 3.0932710339 3.0932710339 3.0932710339 3.0786768432 3.0786768432 3.0786768432 3.0932710339 
3.0932710339 3.0786768432 3.0786768432 3.0932710339 3.0932710339 3.0786768432 3.0786768432 3.0786768432 3.0932710339 
3.0932710339 3.0786768432 3.0786768432 3.0786768432 3.0932710339 3.0932710339 3.0932710339 3.0786768432 3.0786768432 
3.0932710339 3.1078652246 3.1078652246 3.1078652246 3.1078652246 3.1078652246 3.1078652246 3.0932710339 3.0786768432 
3.0786768432 3.0786768432 3.0932710339 3.1078652246 3.1078652246 3.1078652246 3.1078652246 3.0932710339 3.0786768432 
3.0786768432 3.0786768432 3.0932710339 3.1078652246 3.1078652246 3.1078652246 3.0932710339 3.0786768432 3.0786768432 
3.0932710339 3.1078652246 3.1078652246 3.1078652246 3.1078652246 3.0932710339 3.0786768432 3.0786768432 3.0932710339 
3.1078652246 3.1078652246 3.1078652246 3.0932710339 3.0786768432 3.0786768432 3.0786768432 3.0786768432 3.0932710339 
3.1078652246 3.1078652246 3.1078652246 3.1078652246 3.0932710339 3.0786768432 3.0786768432 3.0932710339 3.1078652246 
3.1078652246 3.1078652246 3.0932710339 3.0786768432 3.0786768432 3.0786768432 3.0932710339 3.0932710339 3.1078652246 
3.1078652246 3.1078652246 3.0932710339 3.0786768432 3.0786768432 3.0786768432 3.0932710339 3.1078652246 3.1078652246 
3.1078652246 3.1078652246 3.0932710339 3.0786768432 3.0786768432 3.0932710339 3.1078652246 3.1078652246 3.0932710339 
3.0786768432 3.0786768432 3.0932710339 3.1078652246 3.1078652246 3.1078652246 3.1078652246 3.0932710339 3.0932710339 
3.0786768432 3.0786768432 3.0786768432 3.0932710339 3.1078652246 3.1078652246 3.1078652246 3.0932710339 3.0786768432 
3.0786768432 3.0932710339 3.1078652246 3.1078652246 3.0932710339 3.0786768432 3.0786768432 3.0932710339 3.0932710339 
3.1078652246 3.1078652246 3.1078652246 3.1078652246 3.0932710339 3.0786768432 3.0786768432 3.0786768432 3.0932710339 
3.1078652246 3.1078652246 3.0932710339 3.0786768432 3.0786768432 3.0786768432 3.0932710339 3.1078652246 3.1078652246 
3.1078652246 3.0932710339 3.0786768432 3.0786768432 3.0932710339 3.1078652246 3.1078652246 3.1078652246 3.0932710339 
3.0786768432 3.0786768432 3.0786768432 3.0932710339 3.1078652246 3.1078652246 3.1078652246 3.0932710339 3.0786768432 
3.0786768432 3.0932710339 3.1078652246 3.1078652246 3.0932710339 3.0786768432 3.0786768432 3.0932710339 3.1078652246 
3.1078652246 3.1078652246 3.0932710339 3.0786768432 3.0786768432 3.0932710339 3.1078652246 3.1078652246 3.0932710339 
3.0786768432 3.0786768432 3.0932710339 3.1078652246 3.1078652246 3.1078652246 3.0932710339 3.0786768432 3.0786768432 
3.0932710339 3.1078652246 3.1078652246 3.0932710339 3.0786768432 3.0786768432 3.0786768432 3.0932710339 3.0932710339 
3.1078652246 3.1078652246 3.1078652246 3.1078652246 3.0932710339 3.0786768432 3.0786768432 3.0932710339 3.1078652246 
3.1078652246 3.0932710339 3.0786768432 3.0786768432 3.0932710339 3.1078652246 3.1078652246 3.0932710339 3.0786768432 
3.0786768432 3.0932710339 3.1078652246 3.1078652246 3.1078652246 3.0932710339 3.0786768432 3.0786768432 3.0932710339 
3.1078652246 3.1078652246 3.1078652246 3.0932710339 3.0786768432 3.0786768432 3.0932710339 3.1078652246 3.1078652246 
3.0932710339 3.0786768432 3.0786768432 3.0932710339 3.1078652246 3.1078652246 3.1078652246 3.0932710339 3.0786768432 
3.0786768432 3.0932710339 3.0932710339 3.1078652246 3.1078652246 3.0932710339 3.0786768432 3.0786768432 3.0932710339 
3.1078652246 3.1078652246 3.1078652246 3.0932710339 3.0786768432 3.0786768432 3.0932710339 3.1078652246 3.1078652246 
3.1078652246 3.0932710339 3.0786768432 3.0786768432 3.0786768432 3.0932710339 3.1078652246 3.1078652246 3.0932710339 
3.0786768432 3.0786768432 3.0932710339 3.1078652246 3.1078652246 3.0932710339 3.0786768432 3.0786768432 3.0786768432 
3.0786768432 3.0786768432 3.0932710339 3.1078652246 3.1078652246 3.0932710339 3.0786768432 3.0786768432 3.0786768432 
3.0786768432 3.0786768432 3.0932710339 3.0932710339 3.1078652246 3.1078652246 3.1224594153 3.1224594153 3.1224594153 
3.1224594153 3.1224594153 3.1078652246 3.0932710339 3.0786768432 3.0786768432 3.0786768432 3.0786768432 3.0786768432 
3.0786768432 3.0640826525 3.0640826525 3.0640826525 3.0640826525 3.0640826525 3.0640826525 3.0640826525 3.0786768432 
3.0932710339 3.1078652246 3.1224594153 3.1224594153 3.1224594153 3.1224594153 3.1224594153 3.1224594153 3.1078652246 
3.0932710339 3.0786768432 3.0786768432 3.0786768432 3.0786768432 3.0786768432 3.0640826525 3.0640826525 3.0640826525 
3.0640826525 3.0640826525 3.0640826525 3.0786768432 3.0932710339 3.1078652246 3.1224594153 3.1224594153 3.1224594153 
3.1224594153 3.1078652246 3.1078652246 3.0932710339 3.0786768432 3.0786768432 3.0786768432 3.0786768432 3.0786768432 
3.0786768432 3.0640826525 3.0640826525 3.0640826525 3.0786768432 3.0932710339 3.1078652246 3.1078652246 3.1224594153 
3.1224594153 3.1224594153 3.1078652246 3.0932710339 3.0786768432 3.0786768432 3.0786768432 3.0786768432 3.0640826525 
3.0640826525 3.0640826525 3.0640826525 3.0786768432 3.0932710339 3.1078652246 3.1224594153 3.1224594153 3.1224594153 
3.1224594153 3.1078652246 3.0932710339 3.0786768432 3.0786768432 3.0786768432 3.0786768432 3.0786768432 3.0640826525 
3.0640826525 3.0786768432 3.0786768432 3.0932710339 3.1078652246 3.1224594153 3.1224594153 3.1224594153 3.1224594153 
3.1078652246 3.0932710339 3.0786768432 3.0786768432 3.0786768432 3.0786768432 3.0640826525 3.0640826525 3.0640826525 
3.0786768432 3.0932710339 3.1078652246 3.1078652246 3.1224594153 3.1224594153 3.1078652246 3.0932710339 3.0786768432 
3.0786768432 3.0786768432 3.0786768432 3.0640826525 3.0640826525 3.0640826525 3.0786768432 3.0932710339 3.1078652246 
3.1224594153 3.1224594153 3.1224594153 3.1224594153 3.1078652246 3.0932710339 3.0786768432 3.0786768432 3.0786768432 
3.0786768432 3.0786768432 3.0640826525 3.0640826525 3.0640826525 3.0786768432 3.0932710339 3.1078652246 3.1224594153 
3.1224594153 3.1078652246 3.1078652246 3.0932710339 3.0786768432 3.0786768432 3.0786768432 3.0786768432 3.0640826525 
3.0640826525 3.0640826525 3.0786768432 3.0932710339 3.1078652246 3.1224594153 3.1224594153 3.1224594153 3.1224594153 
3.1078652246 3.0932710339 3.0786768432 3.0786768432 3.0786768432 3.0640826525 3.0640826525 3.0786768432 3.0932710339 
3.0932710339 3.1078652246 3.1224594153 3.1224594153 3.1224594153 3.1078652246 3.0932710339 3.0786768432 3.0786768432 
3.0786768432 3.0786768432 3.0640826525 3.0640826525 3.0640826525 3.0640826525 3.0786768432 3.0932710339 3.1078652246 
3.1078652246 3.1224594153 3.1224594153 3.1078652246 3.0932710339 3.0786768432 3.0786768432 3.0786768432 3.0786768432 
3.0786768432 3.0640826525 3.0640826525 3.0786768432 3.0932710339 3.1078652246 3.1224594153 3.1224594153 3.1224594153 
3.1078652246 3.0932710339 3.0786768432 3.0786768432 3.0786768432 3.0640826525 3.0640826525 3.0786768432 3.0932710339 
3.1078652246 3.1224594153 3.1224594153 3.1224594153 3.1078652246 3.0932710339 3.0786768432 3.0786768432 3.0786768432 
3.0640826525 3.0640826525 3.0786768432 3.0932710339 3.1078652246 3.1078652246 3.1224594153 3.1224594153 3.1224594153 
3.1078652246 3.0932710339 3.0786768432 3.0786768432 3.0786768432 3.0640826525 3.0640826525 3.0640826525 3.0786768432 
3.0932710339 3.1078652246 3.1224594153 3.1224594153 3.1078652246 3.0932710339 3.0786768432 3.0786768432 3.0786768432 
3.0786768432 3.0640826525 3.0640826525 3.0640826525 3.0786768432 3.0932710339 3.0932710339 3.1078652246 3.1224594153 
3.1224594153 3.1224594153 3.1224594153 3.1078652246 3.0932710339 3.0786768432 3.0786768432 3.0786768432 3.0640826525 
3.0640826525 3.0786768432 3.0932710339 3.1078652246 3.1078652246 3.1224594153 3.1224594153 3.1078652246 3.1078652246 
3.0932710339 3.0786768432 3.0786768432 3.0786768432 3.0786768432 3.0786768432 3.0640826525 3.0640826525 3.0786768432 
3.0932710339 3.1078652246 3.1224594153 3.1224594153 3.1224594153 3.1078652246 3.0932710339 3.0786768432 3.0786768432 
3.0786768432 3.0640826525 3.0640826525 3.0786768432 3.0932710339 3.1078652246 3.1224594153 3.1224594153 3.1078652246 
3.0932710339 3.0932710339 3.0786768432 3.0786768432 3.0786768432 3.0640826525 3.0494884618 3.0494884618 3.0494884618 
3.0494884618 3.0494884618 3.0640826525 3.0786768432 3.0932710339 3.1078652246 3.1224594153 3.1224594153 3.1224594153 
3.1078652246 3.0932710339 3.0786768432 3.0786768432 3.0786768432 3.0640826525 3.0640826525 3.0494884618 3.0494884618 
3.0494884618 3.0640826525 3.0786768432 3.0786768432 3.0932710339 3.1078652246 3.1078652246 3.1224594153 3.1224594153 
3.1224594153 3.1078652246 3.0932710339 3.0786768432 3.0786768432 3.0786768432 3.0640826525 3.0494884618 3.0494884618 
3.0494884618 3.0494884618 3.0640826525 3.0786768432 3.0932710339 3.0932710339 3.1078652246 3.1224594153 3.1224594153 
3.1078652246 3.0932710339 3.0786768432 3.0786768432 3.0786768432 3.0786768432 3.0640826525 3.0494884618 3.0494884618 
3.0494884618 3.0640826525 3.0786768432 3.0932710339 3.1078652246 3.1224594153 3.1224594153 3.1224594153 3.1078652246 
3.0932710339 3.0786768432 3.0786768432 3.0786768432 3.0786768432 3.0640826525 3.0494884618 3.0494884618 3.0494884618 
3.0640826525 3.0786768432 3.0932710339 3.1078652246 3.1078652246 3.1224594153 3.137053606 3.137053606 3.137053606 
3.137053606 3.137053606 3.1224594153 3.1078652246 3.0932710339 3.0786768432 3.0786768432 3.0786768432 3.0640826525 
3.0494884618 3.0494884618 3.0640826525 3.0786768432 3.0932710339 3.1078652246 3.1224594153 3.137053606 3.137053606 
3.137053606 3.137053606 3.1224594153 3.1078652246 3.0932710339 3.0786768432 3.0786768432 3.0786768432 3.0786768432 
3.0640826525 3.0494884618 3.0494884618 3.0494884618 3.0640826525 3.0786768432 3.0932710339 3.0932710339 3.1078652246 
3.1224594153 3.137053606 3.137053606 3.1224594153 3.1078652246 3.0932710339 3.0786768432 3.0786768432 3.0786768432 
3.0640826525 3.0494884618 3.0494884618 3.0494884618 3.0640826525 3.0786768432 3.0932710339 3.1078652246 3.1078652246 
3.1224594153 3.1224594153 3.137053606 3.137053606 3.137053606 3.1224594153 3.1078652246 3.0932710339 3.0786768432 
3.0786768432 3.0786768432 3.0786768432 3.0786768432 3.0640826525 3.0494884618 3.0494884618 3.0640826525 3.0786768432 
3.0932710339 3.1078652246 3.1224594153 3.137053606 3.137053606 3.137053606 3.1224594153 3.1078652246 3.0932710339 
3.0786768432 3.0786768432 3.0786768432 3.0786768432 3.0640826525 3.0494884618 3.0494884618 3.0494884618 3.0640826525 
3.0786768432 3.0932710339 3.1078652246 3.1224594153 3.137053606 3.137053606 3.1224594153 3.1078652246 3.0932710339 
3.0786768432 3.0786768432 3.0786768432 3.0786768432 3.0640826525 3.0640826525 3.0494884618 3.0348942711 3.0348942711 
3.0348942711 3.0348942711 3.0494884618 3.0640826525 3.0640826525 3.0786768432 3.0932710339 3.1078652246 3.1224594153 
3.137053606 3.137053606 3.1224594153 3.1078652246 3.0932710339 3.0786768432 3.0786768432 3.0786768432 3.0786768432 
3.0786768432 3.0640826525 3.0494884618 3.0348942711 3.0348942711 3.0348942711 3.0348942711 3.0494884618 3.0494884618 
3.0640826525 3.0786768432 3.0932710339 3.1078652246 3.1224594153 3.1224594153 3.137053606 3.137053606 3.1224594153 
3.1078652246 3.0932710339 3.0932710339 3.0786768432 3.0640826525 3.0640826525 3.0640826525 3.0640826525 3.0640826525 
3.0640826525 3.0786768432 3.0786768432 3.0786768432 3.0786768432 3.0786768432 3.0640826525 3.0494884618 3.0348942711 
3.0348942711 3.0348942711 3.0494884618 3.0640826525 3.0786768432 3.0932710339 3.1078652246 3.1078652246 3.1224594153 
3.137053606 3.137053606 3.1224594153 3.1078652246 3.0932710339 3.0786768432 3.0640826525 3.0640826525 3.0640826525 
3.0786768432 3.0786768432 3.0786768432 3.0786768432 3.0786768432 3.0640826525 3.0494884618 3.0348942711 3.0348942711 
3.0348942711 3.0494884618 3.0640826525 3.0786768432 3.0786768432 3.0932710339 3.0932710339 3.1078652246 3.1224594153 
3.137053606 3.137053606 3.137053606 3.1224594153 3.1078652246 3.0932710339 3.0786768432 3.0786768432 3.0640826525 
3.0640826525 3.0640826525 3.0786768432 3.0786768432 3.0786768432 3.0640826525 3.0494884618 3.0348942711 3.0348942711 
3.0494884618 3.0640826525 3.0786768432 3.0932710339 3.1078652246 3.1078652246 3.1224594153 3.137053606 3.137053606 
3.1224594153 3.1078652246 3.0932710339 3.0786768432 3.0640826525 3.0640826525 3.0640826525 3.0640826525 3.0786768432 
3.0786768432 3.0640826525 3.0494884618 3.0494884618 3.0348942711 3.0348942711 3.0348942711 3.0348942711 3.0494884618 
3.0640826525 3.0786768432 3.0932710339 3.1078652246 3.1224594153 3.137053606 3.137053606 3.1224594153 3.1078652246 
3.0932710339 3.0786768432 3.0640826525 3.0640826525 3.0786768432 3.0786768432 3.0786768432 3.0640826525 3.0494884618 
3.0348942711 3.0203000804 3.0203000804 3.0203000804 3.0203000804 3.0348942711 3.0494884618 3.0640826525 3.0640826525 
3.0786768432 3.0932710339 3.1078652246 3.1224594153 2.9473291268 2.9473291268 2.9619233175 2.9619233175 2.9765175082 
2.9765175082 2.991111699 2.991111699 3.0057058897 3.0057058897 3.0203000804 3.0203000804 3.0348942711 3.0348942711 
3.0494884618 3.0494884618 3.0640826525 3.0640826525 3.0786768432 3.0786768432 3.0932710339 3.0932710339 3.1078652246 
3.1078652246 3.1224594153 3.1224594153 2.9473291268 2.9619233175 2.9765175082 2.991111699 3.0057058897 3.0203000804 
3.0348942711 3.0494884618 3.0640826525 3.0786768432 3.0932710339 3.1078652246 3.1224594153 2.9473291268 2.9619233175 
2.9765175082 2.991111699 3.0057058897 3.0203000804 3.0348942711 3.0494884618 3.0640826525 3.0786768432 3.0932710339 
3.1078652246 3.1224594153 2.9473291268 2.9619233175 2.9765175082 2.991111699 3.0057058897 3.0203000804 3.0348942711 
3.0494884618 3.0640826525 3.0786768432 3.0932710339 3.1078652246 3.1224594153 2.9473291268 2.9619233175 2.9765175082 
2.991111699 3.0057058897 3.0203000804 3.0348942711 3.0494884618 3.0640826525 3.0786768432 3.0932710339 3.1078652246 
3.1224594153 2.9473291268 2.9619233175 2.9765175082 2.991111699 3.0057058897 3.0203000804 3.0348942711 3.0494884618 
3.0640826525 3.0786768432 3.0932710339 3.1078652246 3.1224594153 3.137053606 2.9473291268 2.9619233175 2.9765175082 
2.991111699 3.0057058897 3.0203000804 3.0348942711 3.0494884618 3.0640826525 3.0786768432 3.0932710339 3.1078652246 
3.1224594153 3.137053606 2.9473291268 2.9619233175 2.9765175082 2.991111699 3.0057058897 3.0203000804 3.0348942711 
3.0494884618 3.0640826525 3.0786768432 3.0932710339 3.1078652246 3.1224594153 3.137053606 2.9473291268 2.9619233175 
2.9765175082 2.991111699 3.0057058897 3.0203000804 3.0348942711 3.0494884618 3.0640826525 3.0786768432 3.0932710339 
3.1078652246 3.1224594153 3.137053606 2.9473291268 2.9619233175 2.9765175082 2.991111699 3.0057058897 3.0203000804 
3.0348942711 3.0494884618 3.0640826525 3.0786768432 3.0932710339 3.1078652246 3.1224594153 3.137053606 3.137053606 
3.1224594153 3.1078652246 3.1078652246 3.0932710339 3.0786768432 3.0640826525 3.0640826525 3.0640826525 3.0786768432 
3.0786768432 3.0786768432 3.0640826525 3.0494884618 3.0348942711 3.0203000804 3.0203000804 3.0203000804 3.0203000804 
3.0348942711 3.0494884618 3.0640826525 3.0786768432 3.0932710339 2.9473291268 2.9473291268 2.9619233175 2.9619233175 
2.9765175082 2.9765175082 2.991111699 2.991111699 3.0057058897 3.0057058897 3.0203000804 3.0203000804 3.0348942711 
3.0348942711 3.0494884618 3.0494884618 3.0640826525 3.0640826525 3.0786768432 3.0786768432 3.0932710339 3.0932710339 
3.1078652246 2.9473291268 2.9619233175 2.9765175082 2.991111699 3.0057058897 3.0203000804 3.0348942711 3.0494884618 
3.0640826525 3.0786768432 3.0932710339 3.1078652246 2.9473291268 2.9619233175 2.9765175082 2.991111699 3.0057058897 
3.0203000804 3.0348942711 3.0494884618 3.0640826525 3.0786768432 3.0932710339 3.1078652246 2.9473291268 2.9619233175 
2.9765175082 2.991111699 3.0057058897 3.0203000804 3.0348942711 3.0494884618 3.0640826525 3.0786768432 3.0932710339 
3.1078652246 2.9473291268 2.9619233175 2.9765175082 2.991111699 3.0057058897 3.0203000804 3.0348942711 3.0494884618 
3.0640826525 3.0786768432 3.0932710339 3.1078652246 3.1224594153 2.9473291268 2.9619233175 2.9765175082 2.991111699 
3.0057058897 3.0203000804 3.0348942711 3.0494884618 3.0640826525 3.0786768432 3.0932710339 3.1078652246 3.1224594153 
2.9473291268 2.9619233175 2.9765175082 2.991111699 3.0057058897 3.0203000804 3.0348942711 3.0494884618 3.0640826525 
3.0786768432 3.0932710339 3.1078652246 3.1224594153 2.9473291268 2.9619233175 2.9765175082 2.991111699 3.0057058897 
3.0203000804 3.0348942711 3.0494884618 3.0640826525 3.0786768432 3.0932710339 3.1078652246 3.1224594153 2.9473291268 