# vtk DataFile Version 4.2
vtk output
ASCII
DATASET UNSTRUCTURED_GRID
POINTS 1740 double
2144.07 -94.44003 0 2911 0 0 16.54298 -37.82236 0 
5.09149 -21.30132 0 1.27433 -10.75385 0 0 0 0 
2.54575 15.14293 0 6.36291 23.76126 0 14.00014 34.89063 0 
30.50239 50.70793 0 33.39435 -52.93479 0 2050.91 -103.7862 0 
60.1465 -69.72165 0 88.83633 -83.2817 0 118.7656 -94.71113 0 
153.4168 -105.7022 0 199.5806 -117.771 0 261.4466 -130.7139 0 
345.846 -144.1892 0 460.3522 -157.0592 0 608.4185 -167.1903 0 
783.2313 -172.4016 0 941.0559 -172.4533 0 1063.409 -170.1096 0 
1164.153 -166.8746 0 1263.449 -162.682 0 1375.468 -156.8941 0 
1513.293 -148.414 0 1665.281 -137.5317 0 1791.864 -127.3721 0 
2195.451 -89.09491 0 2273.924 -80.67077 0 2383.731 -68.3513 0 
2517.64 -52.47337 0 2649.227 -35.9232 0 2740.773 -23.82991 0 
2804.387 -15.13419 0 2848.802 -8.916218 0 2881.944 -4.196067 0 
56.61447 67.79801 0 84.09687 81.25172 0 112.4783 92.48395 0 
142.1748 102.3504 0 174.8563 111.6168 0 213.124 120.8806 0 
260.3759 130.5151 0 324.6539 141.1779 0 418.1422 152.9178 0 
535.6656 162.9871 0 690.9154 170.4255 0 902.6513 172.7852 0 
1100.32 169.0517 0 1270.99 162.3262 0 1462.794 151.6837 0 
1631.287 140.0952 0 1747.993 131 0 1922.788 115.9027 0 
2069.56 101.951 0 2128.804 96.0021 0 2297.147 78.11721 0 
2414.379 64.80104 0 2554.023 47.99319 0 2673.693 32.73885 0 
2757.97 21.50315 0 2814.297 13.7575 0 2852.02 8.460961 0 
2882.272 4.148909 0 1791.052 127.4402 0 1366.894 157.3738 0 
1444.38 -152.8302 0 1547.039 146.1296 0 1589.287 -143.1614 0 
1878.731 119.8675 0 1997.072 108.9828 0 1185.654 166.0472 0 
1882.536 -119.5292 0 1971.323 -111.4145 0 1684.777 136.0292 0 
2099.317 -98.9855 0 2234.809 84.9091 0 2181.695 90.53914 0 
1728.573 -132.5703 0 1718.815 133.3509 0 1834.825 123.7132 0 
1960.305 112.4444 0 2033.69 105.4648 0 2099.184 98.99892 0 
2214.291 -85.345720858 396.8421 2955.512 3.1928682696 396.8421 158.0786 -28.87998434 396.8421 
147.0109 -12.998661309 396.8421 143.3217 -2.8535158762 396.8421 142.09 7.4946275257 396.8421 
144.5505 22.073449942 396.8421 148.2398 30.374417736 396.8421 155.621 41.097902313 396.8421 
171.5701 56.345592703 396.8421 174.3652 -43.396230958 396.8421 2124.254 -94.070786075 396.8421 
200.2206 -59.507709264 396.8421 227.9488 -72.511570404 396.8421 256.8748 -83.46466612 396.8421 
290.3647 -93.991105862 396.8421 334.981 -105.54226477 396.8421 394.7733 -117.92187616 396.8421 
476.3434 -130.80313223 396.8421 587.0114 -143.10368148 396.8421 730.1145 -152.80020157 396.8421 
899.0676 -157.83362109 396.8421 1051.602 -157.97261334 396.8421 1169.853 -155.83151981 396.8421 
1267.221 -152.84047673 396.8421 1363.188 -148.94962613 396.8421 1471.452 -143.56809396 396.8421 
1604.657 -135.67472571 396.8421 1751.55 -125.53796125 396.8421 1873.891 -116.06950778 396.8421 
2263.949 -80.353473277 396.8421 2339.792 -72.481679063 396.8421 2445.918 -60.960948242 396.8421 
2575.338 -46.095101221 396.8421 2702.515 -30.577119537 396.8421 2790.992 -19.222392257 396.8421 
2852.473 -11.049222384 396.8421 2895.4 -5.2004781178 396.8421 2927.431 -0.75809969804 396.8421 
196.807 72.829157223 396.8421 223.3682 85.81096158 396.8421 250.7983 96.652227375 396.8421 
279.4994 106.17672838 396.8421 311.0855 115.12261209 396.8421 348.0705 124.06556682 396.8421 
393.7383 133.36463323 396.8421 455.8617 143.65101164 396.8421 546.2162 154.96230469 396.8421 
659.8003 164.63432002 396.8421 809.846 171.71582486 396.8421 1014.485 173.797402 396.8421 
1205.528 169.95315299 396.8421 1370.477 163.21497378 396.8421 1555.851 152.62851861 396.8421 
1718.696 141.13942934 396.8421 1831.49 132.13767782 396.8421 2000.426 117.21541964 396.8421 
2142.278 103.44289982 396.8421 2199.537 97.574942561 396.8421 2362.236 79.94817351 396.8421 
2475.539 66.837933773 396.8421 2610.501 50.306028083 396.8421 2726.16 35.317036629 396.8421 
2807.613 24.285541557 396.8421 2862.05 16.684839172 396.8421 2898.509 11.489316789 396.8421 
2927.749 7.2606241404 396.8421 1873.106 128.61714957 396.8421 1463.165 158.28228102 396.8421 
1538.054 -139.78629204 396.8421 1637.272 147.1186793 396.8421 1678.104 -130.78274972 396.8421 
1957.846 121.13219363 396.8421 2072.22 110.38255837 396.8421 1288 166.93403128 396.8421 
1961.524 -108.75729088 396.8421 2047.334 -101.18868941 396.8421 1770.393 137.1139369 396.8421 
2171.038 -89.589799636 396.8421 2301.989 86.63948601 396.8421 2250.655 92.188515622 396.8421 
1812.721 -120.91457554 396.8421 1803.29 134.46337308 396.8421 1915.411 124.93258079 396.8421 
2036.686 113.8000355 396.8421 2107.61 106.91017321 396.8421 2170.909 100.53069631 396.8421 
2284.511 -74.315541421 793.6842 3000.027 8.7335590007 793.6842 299.6143 -19.394499095 793.6842 
288.9304 -4.1345247146 793.6842 285.3691 5.6215623922 793.6842 284.1801 15.578741498 793.6842 
286.5551 29.616350658 793.6842 290.1167 37.614252087 793.6842 297.2417 47.951785413 793.6842 
312.6379 62.661709732 793.6842 315.336 -33.32859951 793.6842 2197.597 -82.495241603 793.6842 
340.2947 -48.776924595 793.6842 367.0612 -61.231423475 793.6842 394.9839 -71.711303001 793.6842 
427.3123 -81.773243441 793.6842 470.3812 -92.802841428 793.6842 528.0998 -104.6081361 793.6842 
606.8411 -116.87197055 793.6842 713.6708 -128.55900992 793.6842 851.8104 -137.74624081 793.6842 
1014.904 -142.49262372 793.6842 1162.147 -142.60464439 793.6842 1276.298 -140.56913581 793.6842 
1370.288 -137.73775088 793.6842 1462.927 -134.06236994 793.6842 1567.436 -128.98741238 793.6842 
1696.021 -121.55513057 793.6842 1837.82 -112.02447268 793.6842 1955.917 -103.13211979 793.6842 
2332.447 -69.636024534 793.6842 2405.659 -62.257778752 793.6842 2508.105 -51.459389976 793.6842 
2633.037 -37.523174704 793.6842 2755.801 -22.969715312 793.6842 2841.209 -12.315465125 793.6842 
2900.561 -4.6431975286 793.6842 2941.997 0.84900358676 793.6842 2972.917 5.0216578458 793.6842 
336.9995 78.578583592 793.6842 362.6396 91.124899999 793.6842 389.1182 101.60977027 793.6842 
416.8239 110.82668353 793.6842 447.3145 119.48836738 793.6842 483.0167 128.15166435 793.6842 
527.1009 137.16475834 793.6842 587.0697 147.14049393 793.6842 674.2905 158.11687295 793.6842 
783.9349 167.50685522 793.6842 928.7766 174.379396 793.6842 1126.317 176.37628054 793.6842 
1310.735 172.59068958 793.6842 1469.963 165.97529158 793.6842 1648.908 155.58283651 793.6842 
1806.105 144.30061661 793.6842 1914.987 135.45790051 793.6842 2078.064 120.7946404 793.6842 
2214.996 107.25744751 793.6842 2270.269 101.48908075 793.6842 2427.326 84.160373387 793.6842 
2536.699 71.271954744 793.6842 2666.98 55.021620729 793.6842 2778.628 40.290860397 793.6842 
2857.255 29.451744408 793.6842 2909.806 21.984918677 793.6842 2945.001 16.881592441 793.6842 
2973.224 12.728373848 793.6842 1955.16 131.99887871 793.6842 1559.437 161.13328413 793.6842 
1631.729 -125.42507855 793.6842 1727.505 150.17274428 793.6842 1766.921 -116.95403583 793.6842 
2036.96 124.64383664 793.6842 2147.368 114.07881184 793.6842 1390.347 169.62603318 793.6842 
2040.511 -96.269625505 793.6842 2123.346 -89.169930316 793.6842 1856.009 140.34655301 793.6842 
2242.759 -78.294105109 793.6842 2369.167 90.738615442 793.6842 2319.614 96.193816626 793.6842 
1896.869 -107.68144346 793.6842 1887.765 137.74276395 793.6842 1995.998 128.37845421 793.6842 
2113.066 117.43790384 793.6842 2181.531 110.66569873 793.6842 2242.634 104.39470151 793.6842 
2354.732 -62.252858352 1190.526 3044.539 15.878850111 1190.526 441.15 -9.9510588062 1190.526 
430.8497 4.7031883435 1190.526 427.4164 14.080615309 1190.526 426.2701 23.657796141 1190.526 
428.5601 37.170276191 1190.526 431.9934 44.87467645 1190.526 438.8627 54.839190318 1190.526 
453.7057 69.031050996 1190.526 456.3069 -23.316634578 1190.526 2270.94 -69.965709063 1190.526 
480.3688 -38.11587333 1190.526 506.1737 -50.031343813 1190.526 533.0934 -60.045722599 1190.526 
564.26 -69.649356132 1190.526 605.7815 -80.162166967 1190.526 661.4265 -91.394538548 1190.526 
737.3385 -103.03568494 1190.526 840.33 -114.09032797 1190.526 973.5064 -122.72708373 1190.526 
1130.74 -127.11674795 1190.526 1272.693 -127.12147016 1190.526 1382.742 -125.1196191 1190.526 
1473.356 -122.38316744 1190.526 1562.666 -118.85498045 1190.526 1663.42 -114.00481573 1190.526 
1787.385 -106.92777766 1190.526 1924.09 -97.880867532 1190.526 2037.944 -89.459701358 1190.526 
2400.946 -57.84304146 1190.526 2471.527 -50.893363065 1190.526 2570.292 -40.728103114 1190.526 
2690.735 -27.616595239 1190.526 2809.091 -13.930096552 1190.526 2891.43 -3.9123370527 1190.526 
2948.647 3.301282997 1190.526 2988.597 8.4651974802 1190.526 3018.403 12.388592933 1190.526 
477.1918 84.404940286 1190.526 501.9109 96.536807516 1190.526 527.4382 106.68503996 1190.526 
554.1485 115.61378179 1190.526 583.5435 124.01177234 1190.526 617.963 132.41899545 1190.526 
660.4633 141.17462978 1190.526 718.2775 150.87820601 1190.526 802.3645 161.57588671 1190.526 
908.0698 170.75532507 1190.526 1047.707 177.51516594 1190.526 1238.151 179.56154628 1190.526 
1415.942 175.96109619 1190.526 1569.449 169.57697988 1190.526 1741.965 159.49830029 1190.526 
1893.514 148.52460482 1190.526 1998.484 139.90874407 1190.526 2155.702 125.60109498 1190.526 
2287.714 112.3748598 1190.526 2341.001 106.73502984 1190.526 2492.415 89.781073762 1190.526 
2597.858 77.162639361 1190.526 2723.46 61.244951974 1190.526 2831.095 46.810487659 1190.526 
2906.899 36.187211063 1190.526 2957.56 28.868404969 1190.526 2991.49 23.86599984 1190.526 
3018.699 19.794819239 1190.526 2037.214 136.5357174 1190.526 1655.708 164.88601941 1190.526 
1725.403 -110.60966765 1190.526 1817.738 154.23927329 1190.526 1855.738 -102.55699873 1190.526 
2116.075 129.3590784 1190.526 2222.516 119.04127439 1190.526 1492.694 173.10536278 1190.526 
2119.498 -82.970624637 1190.526 2199.357 -76.264594019 1190.526 1941.625 144.6732509 1190.526 
2314.479 -66.003554358 1190.526 2436.346 96.218866192 1190.526 2388.573 101.55599296 1190.526 
1981.017 -93.765861702 1190.526 1972.24 142.13594799 1190.526 2076.584 133.003756 1190.526 
[...]
POINT_DATA 1740
FIELD FieldData 1
Pressure 1 1740 double
3.1044433761 3.0189759745 3.0087475187 2.9858277964 2.9792785647 2.9617100546 2.9725696193 2.9896346654 3.0206386918 
3.0354901608 3.0095462138 3.1081495435 3.0318753664 3.0461371577 3.0630764524 3.0616309635 3.0793192611 3.0843555583 
3.1037416853 3.1100059036 3.127254292 3.1350885741 3.1380831602 3.1413191444 3.1381217768 3.1343562009 3.1310206852 
3.1281098642 3.1228605564 3.1181640907 3.1017829705 3.0985154567 3.0926906972 3.0848844557 3.0738483131 3.0638542124 
3.053779776 3.0454115488 3.0358619356 3.071240639 3.08331056 3.0959168712 3.1101911972 3.117456901 3.1227812291 
3.1304344418 3.1381095632 3.1537563522 3.1662554044 3.1846353554 3.1968668671 3.2025054687 3.2093989413 3.2157533755 
3.219542242 3.2221420151 3.2230447564 3.2462578768 3.1046935615 3.0881608412 3.0828780947 3.0742518843 3.0649728208 
3.054754915 3.0443533574 3.0368028642 3.0342347516 3.2222439584 3.2132227615 3.1305125842 3.2164487589 3.1258864483 
3.2228154234 3.2245539885 3.2083506629 3.1143431586 3.1110620035 3.219680486 3.1064532027 3.0896997658 3.0882991408 
3.1206603717 3.2215013438 3.2232727574 3.2245323107 3.2227692549 3.1938567248 3.1018350495 3.0236189653 3.0274796075 
3.0008855476 3.007835189 2.9870223156 2.9952131395 3.00698197 3.0350978302 3.0542177626 3.0325999101 3.1060723958 
3.0531964798 3.0656054644 3.0794217606 3.0836878149 3.0982413935 3.1075008372 3.1199598975 3.1255269629 3.1338113265 
3.1387172373 3.1405038015 3.1403869994 3.137678155 3.1333251487 3.1293144239 3.124906581 3.120215646 3.1158938691 
3.0993111064 3.095551986 3.0897726523 3.082301281 3.071236321 3.0612502068 3.0513699977 3.0438362743 3.0268797551 
3.0874244606 3.1089851875 3.1217877493 3.1298869866 3.1398511838 3.1442202104 3.1498009878 3.161368901 3.1728295307 
3.1809682872 3.1919681632 3.2004481625 3.2058601789 3.2123452182 3.216289732 3.2194622541 3.2205895514 3.2234217072 
3.1226077965 3.0888770845 3.0881657536 3.0828886569 3.0749585233 3.0653936448 3.0556956993 3.0459418509 3.039059316 
3.0406713233 3.221419324 3.2148923264 3.1281603338 3.2180327887 3.1224264124 3.2228374408 3.223214135 3.2100588469 
3.1119457766 3.1086249432 3.2198386308 3.1042773014 3.0900997102 3.0869966177 3.1183565879 3.2204159418 3.2222528493 
3.223763509 3.2301079756 3.0832514073 3.1001537241 3.0234781466 3.0275324476 3.0000904633 3.0031675235 2.9855178111 
2.9980918515 3.0119489708 3.0404143844 3.0619417152 3.0407982037 3.1041716192 3.0557727595 3.0745578435 3.0928553351 
3.0997085348 3.1113979588 3.1187977619 3.1320651544 3.1380452666 3.143407026 3.145247673 3.1447860172 3.1425450309 
3.138184703 3.1327360409 3.1288000996 3.1234983737 3.1187690912 3.1144033634 3.0978342011 3.0941858659 3.0880988013 
3.0808205919 3.0695310269 3.0594489164 3.0498299974 3.0427623528 3.0271944208 3.0962173078 3.1179575802 3.1371713459 
3.1463799626 3.1539301931 3.1644408102 3.1746550237 3.1789643816 3.1885284221 3.1977466078 3.204631835 3.2111839542 
3.2127683258 3.2188186715 3.2222209596 3.2227185159 3.2234274324 3.2256584859 3.0867102572 3.0924585026 3.0871869374 
3.0823169717 3.0748304061 3.065063884 3.0558691817 3.0465441236 3.0393987223 3.0421076412 3.2244091258 3.2209581974 
3.1265202338 3.2222511915 3.1209693355 3.2252288532 3.2184651791 3.2159124412 3.1104640506 3.1069110634 3.222732116 
3.1026592863 3.0900440026 3.0924069485 3.1168315848 3.2230509206 3.22545537 3.2276245257 3.1260063373 3.0937660204 
3.0989541989 3.0239187645 3.0277538205 3.0001174903 3.0031393332 2.98332249 2.9945104047 3.0087833321 3.0412067508 
3.0633923538 3.039763753 3.1030030032 3.0595124075 3.0768206021 3.0953291605 3.1042423849 3.1158009325 3.1245528951 
3.1362333951 3.1428047372 3.148427383 3.1492452071 3.1473874815 3.1440178182 3.1389276741 3.1335945706 3.1288171188 
3.1231067548 3.1178612831 3.1131023124 3.0965836031 3.093030934 3.0873338433 3.079986147 3.0688296708 3.0587524716 
3.0494828129 3.0425111579 3.02741247 3.1008833331 3.1245579296 3.1400016624 3.1523098133 3.1609961602 3.1715332436 
3.1847544407 3.1945612638 3.2033642319 3.2118201174 3.2179939279 3.2231865119 3.2235713572 3.228487157 3.2301683935 
3.2297711926 3.2300780798 3.2321089763 3.0902237766 3.0891558793 3.0864384448 3.0821619235 3.0749594368 3.0653692246 
3.0562691957 3.047198273 3.0399361364 3.042602387 3.2305027019 3.2297030688 3.1262128495 3.2299785514 3.1203102375 
3.2306806623 3.11898804 3.2260167046 3.1093492762 3.1058091914 3.22960111 3.1012393047 3.088372495 3.0891605156 
3.1156579255 3.229580034 3.2308675645 3.232536304 3.0880025611 3.0902043366 3.0979384819 3.0239738214 3.0300663684 
3.0009098109 3.0084039538 2.9878439654 2.996559685 3.0100916474 3.0434299854 3.0649720315 3.0403953958 3.1019350681 
3.0619238329 3.0789078782 3.0956857461 3.1053397373 3.1175073572 3.1275750886 3.1386632204 3.1455702663 3.151435016 
3.1512849414 3.1482526535 3.1441011613 3.1383113344 3.1328425553 3.1276667851 3.1222466524 3.1167849052 3.1118274239 
3.0957801581 3.0921264849 3.0865994127 3.0792486364 3.0683857887 3.0583847285 3.0493982933 3.0423289947 3.028190125 
3.1024528462 3.1267458598 3.1418176407 3.1556030738 3.1644244453 3.1762732924 3.1888553408 3.1942960501 3.206613011 
3.2188602074 3.2276376654 3.2325302464 3.2336641959 3.2379656202 3.2387982414 3.2376386593 3.237662295 3.2471079501 
3.086996821 3.0879328175 3.0856843501 3.081312776 3.0740973278 3.0647413937 3.0558486019 3.0468596252 3.0396391537 
3.0427047443 3.2378046628 3.2388357162 3.1253702693 3.2383749423 3.1194751102 3.2373791266 3.0813027415 3.236003492 
3.1082918937 3.104852591 3.2373649276 3.1000624386 3.087468799 3.0879705982 3.1144490957 3.2373647401 3.2382535955 
3.1061125289 3.0853472969 3.0878175117 3.0970553941 3.0230509305 3.0313990723 3.0027198833 3.0107357859 2.9889141054 
2.9979761072 3.0114703974 3.0443784439 3.06707379 3.0416839775 3.1008931331 3.0634302775 3.0807939286 3.0969551636 
3.1069202077 3.1191499639 3.1298250238 3.1408551145 3.1477897427 3.1540769724 3.1528153453 3.1488112818 3.143841967 
3.137534067 3.1319034258 3.1265775681 3.1212703315 3.1157295811 3.1107984101 3.0948865078 3.0912071469 3.0858863363 
3.0784795662 3.0677861011 3.0578788802 3.0491920198 3.0419850801 3.0291800389 3.1040774809 3.1288007164 3.1437964146 
3.1577680579 3.1669508605 3.1792341642 3.1928778922 3.2003399979 3.212560772 3.22445443 3.2349807042 3.2402582154 
3.2426385672 3.247561509 3.2484308348 3.2465926143 3.246162671 3.189680342 3.0851335755 3.085130054 3.0830290726 
3.0786332226 3.0715684368 3.0625271582 3.0538481614 3.0451504158 3.0380116192 3.0409479402 3.2460185322 3.2480863594 
3.1243847681 3.2476968697 3.1183951353 3.24400212 3.0826164776 3.2452219894 3.1073022665 3.1038356632 3.2460343575 
3.0991057888 3.0849539033 3.0852884124 3.1132443071 3.2457947882 3.2453373676 3.079149215 3.0845427464 3.0850436071 
3.0962865511 3.0223727201 3.0318908818 3.0031882649 3.010866701 2.988505831 2.9979160799 3.0114805052 3.0445776153 
3.0675269509 3.0424286667 3.1000781668 3.0642820366 3.0819995092 3.0980716176 3.1082671139 3.1205756903 3.1316136409 
3.1425656302 3.1495290346 3.1558997892 3.153866654 3.1490473522 3.1434758051 3.136915789 3.131286868 3.1258426697 
3.1205065612 3.1148954134 3.1098886867 3.0940973211 3.0904046403 3.0852555218 3.0778218946 3.067390917 3.0575620818 
3.0490689171 3.0417178096 3.0300669039 3.104523663 3.1296368926 3.1448429218 3.1589692475 3.1683201065 3.1808253647 
3.1944419734 3.2026352779 3.2153444557 3.2286224594 3.2399801217 3.2467799415 3.2501755996 3.2561248488 3.2576531523 
3.2563248138 3.2553387148 3.106870742 3.0835972504 3.0824673134 3.0796999048 3.07551439 3.0687353794 3.0599167093 
3.0513719076 3.0430301541 3.0359574636 3.0390470111 3.2550103587 3.2571248876 3.1236552102 3.2574785415 3.1176087591 
3.2561978496 3.0822673855 3.2532967905 3.1064520704 3.1029658067 3.2556036047 3.0981970651 3.0816520626 3.0820714091 
3.1123206653 3.2550588801 3.2553082552 3.086449605 3.0833346571 3.0829131307 3.0956815952 3.0219991638 3.0323842166 
3.0034883502 3.0109350068 2.9887000072 2.997986461 3.0113904526 3.0447702565 3.0676816024 3.0430430302 3.0994435422 
3.0649616077 3.0827242272 3.0987356004 3.1091712043 3.1216027522 3.1330293699 3.1437344297 3.1508139482 3.1571483154 
3.1544966056 3.1490772112 3.1431260377 3.1364555958 3.1308301563 3.1253254822 3.1199331439 3.114324549 3.1093161585 
3.0935013529 3.0898176881 3.0848059635 3.07738723 3.0671866304 3.0573696488 3.0490022926 3.0415505004 3.0306454161 
3.1046253108 3.1299023553 3.1454370371 3.1595982681 3.1690861999 3.1816239072 3.1951835297 3.2040479422 3.2169664208 
3.2308143182 3.2428203789 3.250987648 3.2559279879 3.262604444 3.2648247615 3.2645728564 3.2640013338 3.1102232807 
3.0813885299 3.0802690769 3.0775058009 3.0732958234 3.066710262 3.0581109353 3.0496829207 3.0415592294 3.0346008715 
3.0375822448 3.2641045252 3.2646613792 3.1231652348 3.264934677 3.1170671638 3.2615630632 3.0814400415 3.259536479 
3.105918198 3.1023655168 3.2642613331 3.0975254794 3.0790386334 3.0795000712 3.1116559395 3.2637615387 3.2645555542 
3.0851178908 3.0811794917 3.0812150033 3.0953060736 3.0221796511 3.0328854053 3.003840632 3.0110937679 2.9889771971 
2.9982852775 3.0116034566 3.0450634147 3.0679509715 3.0435920108 3.0991408148 3.0654815134 3.0834356259 3.0993665902 
3.1100602005 3.1224932634 3.1342594303 3.1447172711 3.1518765395 3.1581502878 3.1550609346 3.1491638627 3.1429890495 
3.1362814116 3.1305966231 3.1250411188 3.1194774397 3.1139767144 3.1089344541 3.0931641431 3.0894728153 3.0845661059 
3.0771202298 3.0671312555 3.0572035787 3.0489381689 3.0414521624 3.0309074627 3.1048163959 3.1301252342 3.1459629608 
3.1600848836 3.1696754531 3.1821886151 3.1956031933 3.2048910832 3.2180610768 3.2321426089 3.2445015543 3.2537835145 
3.2596840747 3.2671447565 3.2707925007 3.2708743183 3.2713861574 3.1260573544 3.077433877 3.0767649865 3.0749979771 
3.0712333058 3.0651604636 3.0568906734 3.0487035694 3.0408044708 3.0340455964 3.0368924609 3.2715875837 3.2694143404 
3.1227585779 3.2714182384 3.1167005088 3.2687202944 3.0776005472 3.2636914187 3.1055381412 3.1020566411 3.2710336866 
3.0971156662 3.0763291678 3.0762145984 3.1112773113 3.2708466522 3.2716625273 3.0812692625 3.0766456562 3.0777391555 
3.095166957 3.0229792314 3.0332810448 3.0041154517 3.0111642364 2.9892407899 2.9985988168 3.0119284447 3.0453922013 
3.0683355524 3.0439423728 3.0989004701 3.0657547266 3.0838941274 3.0998765698 3.1108421769 3.1231418653 3.1351802237 
3.1455171621 3.1528215712 3.1591339989 3.1557577266 3.1495507249 3.1431786073 3.1364419998 3.1306427705 3.1250492139 
3.1194770896 3.1139691938 3.1088833806 3.0930024778 3.0893627403 3.0845126752 3.0770339931 3.0672024695 3.0572037148 
3.0489966838 3.0414834466 3.0311192029 3.1051538617 3.1304392797 3.146477922 3.160513569 3.170218925 3.1826558052 
3.1959291979 3.2055518891 3.2189481247 3.2331099701 3.245683858 3.2553053375 3.2619513938 3.2700785977 3.2740484021 
3.2755954916 3.2761808929 3.1744821399 3.0754333189 3.0755400549 3.0736316583 3.0701936325 3.0647712321 3.0565870599 
3.0485146092 3.0409328853 3.0343222596 3.037050889 3.2766371085 3.2726867193 3.1227655217 3.275310906 3.1167210114 
3.2737881448 3.075280933 3.266309613 3.1054911586 3.1019979065 3.2758474119 3.0969270038 3.0747903082 3.0743407432 
3.1112405279 3.275924755 3.2764827345 3.0831281313 3.0741906245 3.0760789852 3.0952054287 3.0239607155 3.0335649713 
3.0042878373 3.0111116832 2.9895313132 2.9989559426 3.0122915608 3.0458093533 3.0687929728 3.043980847 3.0990274685 
3.0657983821 3.0838035426 3.0998299448 3.1110556589 3.1234092793 3.1357027253 3.1460852102 3.1535580575 3.160134959 
3.1566423842 3.1502820376 3.1437371299 3.1369756669 3.1310406801 3.1254067546 3.1199343239 3.1143207785 3.1091456827 
3.0931181846 3.0894636922 3.0846229982 3.0771412306 3.0673573737 3.057338443 3.0491655291 3.0416399582 3.0314442371 
3.1056381509 3.130854554 3.1470953958 3.1610883186 3.1708476084 3.1832145783 3.1963247164 3.2061876802 3.2198163356 
3.2339157179 3.2466608747 3.2564549679 3.2632631071 3.2720013383 3.2762275101 3.2781539245 3.2792492418 3.2574795091 
3.074686268 3.0747289186 3.0744710888 3.0711392017 3.0658274754 3.057271059 3.0491604474 3.041671461 3.0351626434 
3.0376090149 3.2798624191 3.274748251 3.1232310072 3.2777435229 3.1171041158 3.2807765852 3.0736557674 3.2677382216 
3.1057494394 3.1022638201 3.2787703451 3.0969329197 3.0756802445 3.0751720806 3.111530246 3.2789154707 3.2802097469 
3.0750097608 3.0748250896 3.0745150988 3.0955834277 3.0243624473 3.0337146399 3.0043755678 3.0110231026 2.9899089718 
2.9994456871 3.0127548699 3.0463675583 3.0693559005 3.043899027 3.0995116431 3.0654856207 3.0836127368 3.0997399971 
3.1112175874 3.1235707105 3.1359789138 3.1464099281 3.1543501934 3.161169387 3.1577192723 3.1513549193 3.1446415808 
3.1378557785 3.1318092875 3.1260680996 3.1206054554 3.1148284293 3.1096261539 3.0935257451 3.0898352338 3.0849373362 
3.0774265069 3.0676389415 3.0575982754 3.0494022592 3.0418794481 3.0317214904 3.1063633749 3.1314488194 3.1479732649 
3.1619476952 3.1717478179 3.1840317744 3.196994479 3.2069976065 3.2208723322 3.2347860962 3.247615087 3.2575292734 
3.264275561 3.2730317136 3.2777634982 3.2799073588 3.2811993279 3.2956323901 3.0739244131 3.0747593028 3.0743608732 
3.0707611183 3.06529639 3.0567110127 3.0487277979 3.0411592374 3.0348428289 3.037065418 3.2819416452 3.2761452767 
3.1238888943 3.2793840651 3.1176433394 3.2823260665 3.071776349 3.2686899443 3.1062001308 3.1027556665 3.280532004 
3.0973333925 3.075339707 3.0750348114 3.1120419527 3.2807737364 3.2820546273 3.0625413876 3.0724398629 3.0746838398 
3.0962133598 3.0238219999 3.0337897067 3.00437058 3.0109225804 2.9903569806 3.0002057683 3.0133629677 3.0473453889 
3.0701614635 3.0432107068 3.1001797784 3.0647261865 3.0830593804 3.0994566387 3.1111472422 3.1234756175 3.1358817974 
3.1468967381 3.1548035278 3.1621178463 3.1588995733 3.1527411952 3.1458778656 3.1390451618 3.1328420418 3.1270043695 
3.1214905301 3.1156287539 3.1103474096 3.0940922613 3.0903266957 3.0853738089 3.077810728 3.0679719518 3.0579151823 
3.0496770141 3.0421455335 3.0320382981 3.1075195778 3.1324463852 3.1489963333 3.1630376985 3.1728778423 3.1851005999 
3.1979859718 3.2081187841 3.2222660298 3.2359087646 3.2487245091 3.2587287073 3.2652972209 3.2739199241 3.2789596873 
3.2811829209 3.2824704617 3.2788148267 3.0716989177 3.0715600428 3.0713431041 3.0675214402 3.0616307848 3.0534963106 
3.0457717749 3.0383171281 3.0324001177 3.0345546905 3.2832883048 3.2771773718 3.1248012179 3.280580131 3.1184523706 
3.2846076885 3.0719200216 3.2695776097 3.1067974224 3.1032807426 3.2818209142 3.0979950164 3.072326289 3.071985069 
3.1128100271 3.2820195377 3.2837509833 3.074809164 3.0714164508 3.0714721968 3.0969406361 3.0229653205 3.0338083654 
3.0043542165 3.0108624136 2.9909825503 3.0011698907 3.0140663065 3.048960001 3.0714610934 3.0424356491 3.1009313741 
3.0638932044 3.0823572262 3.0988296215 3.1105937273 3.1230281872 3.1355451208 3.147177477 3.1562058358 3.1628505976 
3.1602394172 3.1544637416 3.1474560914 3.1404946312 3.1340461195 3.1280642213 3.1224825023 3.1165363954 3.1111714505 
3.0947503108 3.0909231319 3.0858610087 3.0782672985 3.0683309454 3.0582553629 3.0499413774 3.0424179556 3.032191389 
3.1092021949 3.1339203809 3.1504071597 3.1645258321 3.1743240742 3.1865689952 3.1993537036 3.2095946959 3.2240476967 
3.2373209519 3.2501107568 3.2600173756 3.2664337666 3.2748829613 3.2800494955 3.282272892 3.283582934 3.1568443769 
3.067249179 3.0674735392 3.0666579949 3.0630246133 3.0572030447 3.0496527747 3.042129146 3.0350498586 3.0296254871 
3.0316023835 3.2844690675 3.278197044 3.1259019597 3.2816598583 3.1194406114 3.2842446752 3.0674742492 3.2705674208 
3.1076211694 3.1039883177 3.2829105881 3.0987794 3.0678300634 3.0675406838 3.1136774133 3.2831231288 3.2850854858 
3.070679091 3.0672099137 3.0676045788 3.0977406385 3.0230487659 3.0337728689 3.0041703609 3.011127731 2.9917371961 
3.0021505953 3.014837025 3.0507364129 3.0730924509 3.0416061079 3.1018020944 3.0629882986 3.0816057444 3.0974710287 
3.1091071943 3.1218842139 3.134472957 3.1471101052 3.1569041678 3.1636548484 3.1619103001 3.1565212777 3.1493031102 
3.1420869054 3.1352849891 3.1290315654 3.1234824205 3.1173085127 3.1120725357 3.0955113957 3.0916738358 3.0864793802 
3.0788519509 3.0687599704 3.0586206539 3.0501944194 3.0426504912 3.0318928613 3.1110809311 3.1358203282 3.1520348447 
3.1662076305 3.1760044649 3.1881121857 3.2009702114 3.2112694762 3.2258836576 3.2388754802 3.2514377171 3.2616240207 
3.2678831535 3.2760695605 3.2816318722 3.2842461198 3.2855158989 3.0760092611 3.0657712742 3.0657617967 3.0650142157 
3.0619544802 3.0566023944 3.0490693145 3.0414805046 3.0346459599 3.0293519843 3.0311039598 3.2866550156 3.2794013205 
3.1269643848 3.2832854502 3.1205085784 3.2872565307 3.0655831561 3.2718208525 3.1084853487 3.1048480872 3.2846013295 
3.0996722802 3.0662073018 3.0659567533 3.1145926602 3.2849919047 3.2860301628 3.065825379 3.0659179457 3.0654187918 
3.0985991443 3.0240843675 3.0320976636 3.0028178778 3.0106351214 2.9912909034 3.0018780183 3.0149784729 3.0511380607 
3.074122185 3.0403832014 3.1027595423 3.0612091378 3.0801091562 3.0958117092 3.1074957322 3.1205797184 3.132840601 
3.1473903677 3.1566552736 3.1646651195 3.1646232558 3.1592716145 3.151827782 3.1440259704 3.1367052163 3.1302703451 
3.1245686403 3.119103658 3.1133461001 3.0963630699 3.0924547009 3.0871828504 3.0794354408 3.0691340266 3.0588352229 
3.0502982803 3.0426979593 3.0306604246 3.112235418 3.1372897822 3.1532091827 3.1671496398 3.1771057361 3.1893957649 
3.2023910958 3.2127889938 3.2273531991 3.2404522784 3.2534401348 3.2631819757 3.2697420171 3.2780859851 3.2849613343 
3.2871841647 3.2873677499 3.0674855512 3.0698618526 3.0698282336 3.0688999531 3.0652078987 3.0601628444 3.0522211476 
3.0445668053 3.03734794 3.0320375578 3.0334749015 3.2874910529 3.2817864494 3.1282103162 3.2863457289 3.1215425347 
3.2993500748 3.0681530778 3.2735753669 3.1098432913 3.1059665695 3.2874245006 3.1005952499 3.0702360577 3.069941698 
3.1160632321 3.287424847 3.29728119 3.0633664064 3.069155348 3.0695441599 3.099250408 3.0249163054 3.0305431468 
2.9998576207 3.0053539516 2.9906107766 3.0002413902 3.014055346 3.0501896927 3.0736989595 3.0382130511 3.1035064021 
3.0596093379 3.0788012429 3.0954566867 3.1067136181 3.1200892495 3.1315129662 3.148680345 3.1581755133 3.1675101957 
3.1696549169 3.1636844731 3.1554295322 3.1462113609 3.1383292943 3.1315479533 3.1251851513 3.1191811303 3.1143575499 
3.0972165891 3.0930947186 3.0877968871 3.0801088154 3.0693704541 3.0587777091 3.0500511649 3.042268872 3.0288264045 
3.1120267847 3.1373668528 3.1538485441 3.1683021397 3.1783130658 3.1905209016 3.2035225643 3.2146994035 3.2301027197 
3.2436706104 3.2568039812 3.2695644864 3.2738988215 3.281824032 3.2873095837 3.2878876019 3.2860856103 3.0667563925 
3.0730344752 3.0723521011 3.0724005848 3.0696915723 3.0642616355 3.0559404127 3.0486139436 3.041303385 3.0355976199 
3.0377987779 3.2898881839 3.2852357926 3.128776454 3.2874484746 3.1221774097 3.0552017597 3.0709343592 3.2772822098 
3.110152299 3.1065734273 3.2870602081 3.1013286709 3.0733941812 3.0735215564 3.1169798528 3.286561573 3.2129801282 
3.0645279742 3.0718249167 3.0729021571 3.099343969 3.0282167783 3.0327004641 3.0033858307 3.0068943041 2.9903544251 
3.0007313418 3.015493804 3.0491840077 3.0723539566 3.0416981536 3.1024184343 3.0630331045 3.0827621935 3.0971781105 
3.1093073444 3.1227737267 3.1347396444 3.1536111884 3.1739515176 3.1751556634 3.1745447926 3.1669968644 3.1560527484 
3.1457578649 3.137797952 3.1303663645 3.1241975112 3.1175257158 3.1123161139 3.0960809342 3.0937140181 3.088187161 
3.0786966943 3.0692237022 3.058003696 3.0490240723 3.0403002864 3.0271030364 3.1085337828 3.1360918606 3.1586121474 
3.1728869405 3.1818383264 3.2003291372 3.2090361397 3.2199183556 3.237362846 3.2502367156 3.2660565248 3.2743671641 