# vtk DataFile Version 4.2
vtk output
ASCII
DATASET POLYDATA
POINTS 10322 float
-3640.05 -3250.38 5800 -3643.77 -3237.37 5800 983.973 -3237.22 5800 
976.517 -3250.22 5800 3943.89 -3238.27 5800 3943.22 -3237.11 5800 
3950.7 -3250.11 5800 4552.91 -3242.38 5800 4544.54 -3250.09 5800 
4558.65 -3237.09 5800 -3647.49 -3224.37 5800 985.785 -3234.05 5800 
991.429 -3224.21 5800 3935.75 -3224.11 5800 4572.76 -3224.09 5800 
-3651.21 -3211.37 5800 998.885 -3211.21 5800 3928.28 -3211.11 5800 
4581.91 -3215.66 5800 4586.87 -3211.09 5800 -3654.37 -3200.35 5800 
-3654.98 -3198.37 5800 1006.34 -3198.21 5800 3920.81 -3198.11 5800 
4600.98 -3198.09 5800 -3659.06 -3185.37 5800 1013.8 -3185.21 5800 
3914.89 -3187.82 5800 3913.33 -3185.11 5800 4610.91 -3188.94 5800 
4615.09 -3185.09 5800 -3663.69 -3172.37 5800 1014.79 -3183.48 5800 
1021.25 -3172.21 5800 3905.86 -3172.11 5800 4629.2 -3172.08 5800 
-3668.21 -3159.37 5800 1028.71 -3159.21 5800 3898.39 -3159.11 5800 
4639.92 -3162.21 5800 4643.31 -3159.08 5800 -3672.74 -3146.37 5800 
1036.16 -3146.21 5800 3890.92 -3146.11 5800 4657.43 -3146.08 5800 
-3677.27 -3133.37 5800 1043.62 -3133.21 5800 3885.89 -3137.37 5800 
3883.44 -3133.11 5800 4668.92 -3135.49 5800 4671.54 -3133.08 5800 
-3681.8 -3120.37 5800 1043.8 -3132.9 5800 1051.08 -3120.2 5800 
3875.97 -3120.11 5800 4685.65 -3120.08 5800 -3683.37 -3115.86 5800 
-3686.32 -3107.37 5800 1058.53 -3107.2 5800 3868.5 -3107.11 5800 
4697.92 -3108.77 5800 4699.76 -3107.08 5800 -3690.85 -3094.37 5800 
1065.99 -3094.2 5800 3861.03 -3094.1 5800 4713.87 -3094.08 5800 
-3695.38 -3081.36 5800 1072.8 -3082.32 5800 1073.45 -3081.2 5800 
3856.9 -3086.92 5800 3853.56 -3081.1 5800 4726.93 -3082.05 5800 
4727.98 -3081.07 5800 -3699.91 -3068.36 5800 1080.9 -3068.2 5800 
3847.54 -3068.1 5800 4742.09 -3068.07 5800 -3704.43 -3055.36 5800 
1088.36 -3055.2 5800 3844.82 -3055.1 5800 4755.93 -3055.32 5800 
4756.2 -3055.07 5800 -3708.96 -3042.36 5800 1095.81 -3042.2 5800 
3845.31 -3042.1 5800 4780.83 -3042.07 5800 -3712.36 -3032.6 5800 
-3713.49 -3029.36 5800 1101.8 -3031.75 5800 1103.27 -3029.2 5800 
3847.1 -3029.1 5800 4784.93 -3040.54 5800 4813.93 -3029.69 5800 
4815.6 -3029.07 5800 -3718.02 -3016.36 5800 1110.73 -3016.19 5800 
3848.88 -3016.1 5800 4842.94 -3018.84 5800 4850.37 -3016.06 5800 
-3722.54 -3003.36 5800 1118.18 -3003.19 5800 3850.67 -3003.1 5800 
4871.94 -3008 5800 4885.13 -3003.06 5800 -3727.07 -2990.36 5800 
1125.64 -2990.19 5800 3852.46 -2990.1 5800 4900.94 -2997.15 5800 
4919.9 -2990.06 5800 -3731.6 -2977.36 5800 1130.81 -2981.17 5800 
1133.09 -2977.19 5800 3854.24 -2977.1 5800 4929.94 -2986.3 5800 
4954.66 -2977.06 5800 -3736.13 -2964.36 5800 1140.55 -2964.19 5800 
3856.03 -2964.09 5800 4958.94 -2975.46 5800 4987.94 -2964.61 5800 
4988.68 -2964.06 5800 -3740.65 -2951.36 5800 1148.01 -2951.19 5800 
3856.91 -2957.73 5800 3857.82 -2951.09 5800 5002.54 -2951.05 5800 
-3741.36 -2949.34 5800 -3745.18 -2938.36 5800 1155.46 -2938.19 5800 
3859.6 -2938.09 5800 5011.96 -2938.05 5800 -3749.71 -2925.35 5800 
1159.81 -2930.6 5800 1162.92 -2925.19 5800 3861.39 -2925.09 5800 
5016.95 -2928.92 5800 5018.81 -2925.05 5800 -3754.24 -2912.35 5800 
1170.37 -2912.18 5800 3863.18 -2912.09 5800 5025.06 -2912.05 5800 
-3758.76 -2899.35 5800 1177.83 -2899.18 5800 3864.97 -2899.09 5800 
5031.32 -2899.05 5800 -3763.29 -2886.35 5800 1185.28 -2886.18 5800 
3866.75 -2886.09 5800 5037.57 -2886.05 5800 -3767.82 -2873.35 5800 
1188.82 -2879.99 5800 1192.71 -2873.18 5800 3868.54 -2873.09 5800 
5043.83 -2873.05 5800 -3770.35 -2866.08 5800 -3772.35 -2860.35 5800 
1200.07 -2860.18 5800 3870.33 -2860.09 5800 5045.95 -2868.62 5800 
5050.08 -2860.05 5800 -3776.87 -2847.35 5800 1207.4 -2847.18 5800 
3872.11 -2847.09 5800 5056.33 -2847.04 5800 -3781.4 -2834.35 5800 
1214.74 -2834.18 5800 3873.9 -2834.08 5800 5062.59 -2834.04 5800 
-3785.93 -2821.35 5800 1217.82 -2828.71 5800 1222.07 -2821.17 5800 
3875.69 -2821.08 5800 5068.84 -2821.04 5800 -3790.46 -2808.35 5800 
1229.41 -2808.17 5800 3877.47 -2808.08 5800 5074.96 -2808.32 5800 
5075.09 -2808.04 5800 -3794.98 -2795.35 5800 1236.74 -2795.17 5800 
3879.26 -2795.08 5800 5081.35 -2795.04 5800 -3799.34 -2782.83 5800 
-3799.51 -2782.34 5800 1244.08 -2782.17 5800 3881.05 -2782.08 5800 
5087.6 -2782.04 5800 -3804.04 -2769.34 5800 1246.83 -2777.3 5800 
1251.41 -2769.17 5800 3882.83 -2769.08 5800 5093.86 -2769.04 5800 
-3808.57 -2756.34 5800 1258.75 -2756.17 5800 3876.34 -2756.08 5800 
5100.11 -2756.04 5800 -3813.1 -2743.34 5800 1266.08 -2743.17 5800 
3869.95 -2743.08 5800 5103.96 -2748.02 5800 5106.36 -2743.03 5800 
-3817.62 -2730.34 5800 1273.42 -2730.17 5800 3862.09 -2730.08 5800 
5112.62 -2730.03 5800 -3822.15 -2717.34 5800 1275.83 -2725.88 5800 
1280.75 -2717.16 5800 3856.92 -2721.53 5800 3854.23 -2717.08 5800 
5118.87 -2717.03 5800 -3826.68 -2704.34 5800 1288.09 -2704.16 5800 
3846.37 -2704.08 5800 5125.13 -2704.03 5800 -3828.34 -2699.57 5800 
-3831.21 -2691.34 5800 1295.42 -2691.16 5800 3838.52 -2691.07 5800 
5131.38 -2691.03 5800 -3835.73 -2678.34 5800 1302.76 -2678.16 5800 
3830.66 -2678.07 5800 5132.97 -2687.72 5800 5137.63 -2678.03 5800 
-3840.26 -2665.34 5800 1304.84 -2674.47 5800 1310.09 -2665.16 5800 
3827.93 -2673.55 5800 3822.83 -2665.07 5800 5143.89 -2665.03 5800 
-3844.79 -2652.34 5800 1317.43 -2652.16 5800 3815.23 -2652.07 5800 
5150.14 -2652.03 5800 -3849.32 -2639.34 5800 1324.76 -2639.16 5800 
3807.95 -2639.07 5800 5156.4 -2639.03 5800 -3853.84 -2626.33 5800 
1332.1 -2626.16 5800 3800.82 -2626.07 5800 5161.98 -2627.42 5800 
5162.65 -2626.02 5800 -3857.33 -2616.31 5800 -3858.37 -2613.33 5800 
1333.84 -2621.1 5800 1336.13 -2613.16 5800 3798.93 -2622.63 5800 
3793.68 -2613.07 5800 5168.9 -2613.02 5800 -3862.92 -2600.33 5800 
1339.08 -2600.15 5800 3786.55 -2600.07 5800 5175.16 -2600.02 5800 
-3867.73 -2587.33 5800 1342.03 -2587.15 5800 3779.41 -2587.07 5800 
5181.41 -2587.02 5800 -3872.56 -2574.33 5800 1344.98 -2574.15 5800 
3772.27 -2574.07 5800 5187.66 -2574.02 5800 -3877.39 -2561.33 5800 
1347.93 -2561.15 5800 3769.93 -2569.8 5800 3765.14 -2561.07 5800 
5190.98 -2567.12 5800 5193.92 -2561.02 5800 -3882.22 -2548.33 5800 
1350.88 -2548.15 5800 3758 -2548.07 5800 5200.17 -2548.02 5800 
-3886.33 -2537.25 5800 -3887.04 -2535.33 5800 1353.83 -2535.15 5800 
3750.87 -2535.07 5800 5206.43 -2535.02 5800 -3891.87 -2522.33 5800 
1356.78 -2522.15 5800 3743.73 -2522.06 5800 5212.68 -2522.01 5800 
-3896.7 -2509.33 5800 1359.73 -2509.15 5800 3740.94 -2516.98 5800 
3736.77 -2509.06 5800 5218.93 -2509.01 5800 -3901.53 -2496.33 5800 
1362.68 -2496.15 5800 3729.86 -2496.06 5800 5219.99 -2506.82 5800 
5225.19 -2496.01 5800 -3906.36 -2483.33 5800 1362.85 -2495.37 5800 
1365.63 -2483.14 5800 3722.86 -2483.06 5800 5231.44 -2483.01 5800 
-3911.19 -2470.32 5800 1368.58 -2470.14 5800 3715.79 -2470.06 5800 
5237.7 -2470.01 5800 -3915.32 -2459.2 5800 -3916.02 -2457.32 5800 
1371.53 -2457.14 5800 3711.94 -2463.05 5800 3708.79 -2457.06 5800 
5243.95 -2457.01 5800 -3920.85 -2444.32 5800 1374.48 -2444.14 5800 
3701.94 -2444.06 5800 5248.99 -2446.52 5800 5250.2 -2444.01 5800 
-3925.68 -2431.32 5800 1377.43 -2431.14 5800 3695.1 -2431.06 5800 
5256.46 -2431.01 5800 -3930.51 -2418.32 5800 1380.38 -2418.14 5800 
3688.25 -2418.06 5800 5262.71 -2418 5800 -3935.34 -2405.32 5800 
1383.33 -2405.14 5800 3682.94 -2407.98 5800 3681.41 -2405.06 5800 
5268.96 -2405 5800 -3940.17 -2392.32 5800 1386.28 -2392.14 5800 
3674.56 -2392.06 5800 5275.22 -2392 5800 -3944.32 -2381.14 5800 
-3945 -2379.32 5800 1389.23 -2379.14 5800 3667.72 -2379.06 5800 
5278 -2386.22 5800 5281.47 -2379 5800 -3949.82 -2366.32 5800 
1391.87 -2367.53 5800 1392.18 -2366.13 5800 3660.87 -2366.06 5800 
5287.73 -2366 5800 -3954.65 -2353.32 5800 1395.13 -2353.13 5800 
3654.03 -2353.05 5800 5293.98 -2353 5800 -3959.48 -2340.32 5800 
1398.08 -2340.13 5800 3653.95 -2352.9 5800 3647.18 -2340.05 5800 
5300.23 -2340 5800 -3964.31 -2327.32 5800 1401.03 -2327.13 5800 
3640.34 -2327.05 5800 5306.49 -2327 5800 -3969.14 -2314.31 5800 
1403.98 -2314.13 5800 3633.49 -2314.05 5800 5307 -2325.92 5800 
5312.74 -2313.99 5800 -3973.31 -2303.08 5800 -3973.97 -2301.31 5800 
1406.93 -2301.13 5800 3626.65 -2301.05 5800 5319 -2300.99 5800 
-3978.8 -2288.31 5800 1409.88 -2288.13 5800 3624.95 -2297.83 5800 
3619.8 -2288.05 5800 5324.96 -2287.99 5800 -3983.63 -2275.31 5800 
1412.83 -2275.13 5800 3612.96 -2275.05 5800 5330.34 -2274.99 5800 
-3988.46 -2262.31 5800 1415.78 -2262.13 5800 3606.11 -2262.05 5800 
5335.38 -2261.99 5800 -3993.29 -2249.31 5800 1418.73 -2249.12 5800 
3599.27 -2249.05 5800 5336.01 -2260.32 5800 5339.94 -2248.99 5800 
-3998.12 -2236.31 5800 1420.88 -2239.68 5800 1421.68 -2236.12 5800 
3595.95 -2242.75 5800 3592.42 -2236.05 5800 5344.45 -2235.99 5800 
-4002.31 -2225.03 5800 -4002.95 -2223.31 5800 1424.64 -2223.12 5800 
3585.58 -2223.05 5800 5348.97 -2222.99 5800 -4007.78 -2210.31 5800 
1427.59 -2210.12 5800 3578.71 -2210.05 5800 5353.48 -2209.99 5800 
-4012.61 -2197.31 5800 1430.54 -2197.12 5800 3578.2 -2197.05 5800 
5357.99 -2196.98 5800 -4017.43 -2184.31 5800 1433.49 -2184.12 5800 
3578.24 -2184.04 5800 5362.51 -2183.98 5800 -4022.26 -2171.31 5800 
1441.73 -2171.12 5800 3580.35 -2171.04 5800 5365.02 -2176.75 5800 
5367.02 -2170.98 5800 -4027.09 -2158.3 5800 1449.88 -2159.76 5800 
1451.3 -2158.12 5800 3582.46 -2158.04 5800 5371.53 -2157.98 5800 
-4031.3 -2146.97 5800 -4031.92 -2145.3 5800 1462.62 -2145.11 5800 
3584.58 -2145.04 5800 5376.04 -2144.98 5800 -4036.75 -2132.3 5800 
1474.37 -2132.11 5800 3586.69 -2132.04 5800 5380.56 -2131.98 5800 
-4041.58 -2119.3 5800 1478.89 -2127.11 5800 1486.12 -2119.11 5800 
3588.81 -2119.04 5800 5385.07 -2118.98 5800 -4046.41 -2106.3 5800 
1497.86 -2106.11 5800 3590.92 -2106.04 5800 5389.58 -2105.98 5800 
-4051.24 -2093.3 5800 1507.89 -2095.01 5800 1509.61 -2093.11 5800 
3592.73 -2093.04 5800 5394.02 -2093.18 5800 5394.09 -2092.98 5800 
-4056.07 -2080.3 5800 1521.36 -2080.11 5800 3594.3 -2080.04 5800 
5398.61 -2079.97 5800 -4060.3 -2068.91 5800 -4060.9 -2067.3 5800 
[...]
POINT_DATA 10322
SCALARS Pressure double
LOOKUP_TABLE default
3.0909585769 3.0909585769 3.0909585769 3.0909585769 3.0909585769 3.0909585769 3.0909585769 3.0909585769 3.0909585769 
3.0909585769 3.0909585769 3.0909585769 3.0909585769 3.0909585769 3.0909585769 3.0909585769 3.0909585769 3.0909585769 
3.0909585769 3.0909585769 3.0909585769 3.0909585769 3.0909585769 3.0909585769 3.0909585769 3.0909585769 3.0909585769 
3.0909585769 3.0909585769 3.0909585769 3.0909585769 3.0909585769 3.0909585769 3.0909585769 3.0909585769 3.0909585769 
3.0909585769 3.0909585769 3.0909585769 3.0909585769 3.0909585769 3.0909585769 3.0909585769 3.0909585769 3.0909585769 
3.0909585769 3.0909585769 3.0909585769 3.0909585769 3.0909585769 3.0909585769 3.0909585769 3.0909585769 3.0909585769 
3.0909585769 3.0909585769 3.0909585769 3.0909585769 3.0909585769 3.0909585769 3.0909585769 3.0909585769 3.0909585769 
3.0909585769 3.0909585769 3.0909585769 3.0909585769 3.0909585769 3.0909585769 3.0909585769 3.0909585769 3.0909585769 
3.0909585769 3.0909585769 3.0909585769 3.0909585769 3.0909585769 3.0909585769 3.0909585769 3.0909585769 3.0909585769 
3.0909585769 3.0909585769 3.0909585769 3.0909585769 3.0909585769 3.0909585769 3.0909585769 3.0909585769 3.0909585769 
3.0909585769 3.0909585769 3.0909585769 3.0909585769 3.0909585769 3.0909585769 3.0909585769 3.0909585769 3.0909585769 
3.0909585769 3.0909585769 3.0909585769 3.0909585769 3.0909585769 3.0909585769 3.0909585769 3.0909585769 3.0909585769 
3.0909585769 3.0909585769 3.0909585769 3.0909585769 3.0909585769 3.0909585769 3.0909585769 3.0909585769 3.0909585769 
3.0909585769 3.0909585769 3.0909585769 3.0909585769 3.0909585769 3.0909585769 3.0909585769 3.0909585769 3.0909585769 
3.0909585769 3.0909585769 3.0909585769 3.0909585769 3.0909585769 3.0909585769 3.0909585769 3.0909585769 3.0909585769 
3.0909585769 3.0909585769 3.0909585769 3.0909585769 3.0909585769 3.0909585769 3.0909585769 3.0909585769 3.0909585769 
3.0909585769 3.0909585769 3.0909585769 3.0909585769 3.0909585769 3.0909585769 3.0909585769 3.0909585769 3.0909585769 
3.0909585769 3.0909585769 3.0909585769 3.0909585769 3.0909585769 3.0909585769 3.0909585769 3.0909585769 3.0909585769 
3.0909585769 3.0909585769 3.0909585769 3.0909585769 3.0909585769 3.0909585769 3.0909585769 3.0909585769 3.0909585769 
3.0909585769 3.0909585769 3.0909585769 3.0909585769 3.0909585769 3.0909585769 3.0909585769 3.0909585769 3.0909585769 
3.0909585769 3.0909585769 3.0909585769 3.0909585769 3.0909585769 3.0909585769 3.0909585769 3.0909585769 3.0909585769 
3.0909585769 3.0909585769 3.0909585769 3.0909585769 3.0909585769 3.0909585769 3.0909585769 3.0909585769 3.0909585769 
3.0909585769 3.0909585769 3.0909585769 3.0909585769 3.0909585769 3.0909585769 3.0909585769 3.0909585769 3.0909585769 
3.0909585769 3.0909585769 3.0909585769 3.0909585769 3.0909585769 3.0909585769 3.0909585769 3.0909585769 3.0909585769 
3.0909585769 3.0909585769 3.0909585769 3.0909585769 3.0909585769 3.0909585769 3.0909585769 3.0909585769 3.0909585769 
3.0909585769 3.0909585769 3.0909585769 3.0909585769 3.0909585769 3.0909585769 3.0909585769 3.0909585769 3.0909585769 
3.0909585769 3.0909585769 3.0909585769 3.0909585769 3.0909585769 3.0909585769 3.0909585769 3.0909585769 3.0909585769 
3.0909585769 3.0909585769 3.0909585769 3.0909585769 3.0909585769 3.0909585769 3.0909585769 3.0909585769 3.0909585769 
3.0909585769 3.0909585769 3.0909585769 3.0909585769 3.0909585769 3.0909585769 3.0909585769 3.0909585769 3.0909585769 
3.0909585769 3.0909585769 3.0909585769 3.0909585769 3.0909585769 3.0909585769 3.0909585769 3.0909585769 3.0909585769 
3.0909585769 3.0909585769 3.0909585769 3.0909585769 3.0909585769 3.0909585769 3.0909585769 3.0909585769 3.0909585769 
3.0909585769 3.0909585769 3.0909585769 3.0909585769 3.0909585769 3.0909585769 3.0909585769 3.0909585769 3.0909585769 
3.0909585769 3.0909585769 3.0909585769 3.0909585769 3.0909585769 3.0909585769 3.0909585769 3.0909585769 3.0909585769 
3.0909585769 3.0909585769 3.0909585769 3.0909585769 3.0909585769 3.0909585769 3.0909585769 3.0909585769 3.0909585769 
3.0909585769 3.0909585769 3.0909585769 3.0909585769 3.0909585769 3.0909585769 3.0909585769 3.0909585769 3.0909585769 
3.0909585769 3.0909585769 3.0909585769 3.0909585769 3.0909585769 3.0909585769 3.0909585769 3.0909585769 3.0909585769 
3.0909585769 3.0909585769 3.0909585769 3.0909585769 3.0909585769 3.0909585769 3.0909585769 3.0909585769 3.0909585769 
3.0909585769 3.0909585769 3.0909585769 3.0909585769 3.0909585769 3.0909585769 3.0909585769 3.0909585769 3.0909585769 
3.0909585769 3.0909585769 3.0909585769 3.0909585769 3.0909585769 3.0909585769 3.0909585769 3.0909585769 3.0909585769 
3.0909585769 3.0909585769 3.0909585769 3.0909585769 3.0909585769 3.0909585769 3.0909585769 3.0909585769 3.0909585769 
3.0909585769 3.0909585769 3.0909585769 3.0909585769 3.0909585769 3.0909585769 3.0909585769 3.0909585769 3.0909585769 
3.0909585769 3.0909585769 3.0909585769 3.0909585769 3.0909585769 3.0909585769 3.0909585769 3.0909585769 3.0909585769 
3.0909585769 3.0909585769 3.0909585769 3.0909585769 3.0909585769 3.0909585769 3.0909585769 3.0909585769 3.0909585769 
3.0909585769 3.0909585769 3.0909585769 3.0909585769 3.0909585769 3.0909585769 3.0909585769 3.0909585769 3.0909585769 
3.0909585769 3.0909585769 3.0909585769 3.0909585769 3.0909585769 3.0909585769 3.0909585769 3.0909585769 3.0909585769 
3.0909585769 3.0909585769 3.0909585769 3.0909585769 3.0909585769 3.0909585769 3.0909585769 3.0909585769 3.0909585769 
3.0909585769 3.0909585769 3.0909585769 3.0909585769 3.0909585769 3.0909585769 3.0909585769 3.0909585769 3.0909585769 
3.0909585769 3.0909585769 3.0909585769 3.0909585769 3.0909585769 3.0909585769 3.0909585769 3.0909585769 3.0909585769 
3.0909585769 3.0909585769 3.0909585769 3.0909585769 3.0909585769 3.0909585769 3.0909585769 3.0909585769 3.0909585769 
3.0909585769 3.0909585769 3.0909585769 3.0909585769 3.0909585769 3.0909585769 3.0909585769 3.0909585769 3.0909585769 
3.0909585769 3.0909585769 3.0909585769 3.0909585769 3.0909585769 3.0909585769 3.0909585769 3.0909585769 3.0909585769 
3.0909585769 3.0909585769 3.0909585769 3.0909585769 3.0909585769 3.0909585769 3.0909585769 3.0909585769 3.0909585769 
3.0909585769 3.0909585769 3.0909585769 3.0909585769 3.0909585769 3.0909585769 3.0909585769 3.0909585769 3.0909585769 
3.0909585769 3.0909585769 3.0909585769 3.0909585769 3.0909585769 3.0909585769 3.0909585769 3.0909585769 3.0909585769 
3.0909585769 3.0909585769 3.0909585769 3.0909585769 3.0909585769 3.0909585769 3.0909585769 3.0909585769 3.0909585769 
3.0909585769 3.0909585769 3.0909585769 3.0909585769 3.0909585769 3.0909585769 3.0909585769 3.0909585769 3.0909585769 
3.0909585769 3.0909585769 3.0909585769 3.0909585769 3.0909585769 3.0909585769 3.0909585769 3.0909585769 3.0909585769 
3.0909585769 3.0909585769 3.0909585769 3.0909585769 3.0909585769 3.0909585769 3.0909585769 3.0909585769 3.0909585769 
3.0909585769 3.0909585769 3.0909585769 3.0909585769 3.0909585769 3.0909585769 3.0909585769 3.0909585769 3.0909585769 
3.0909585769 3.0909585769 3.0909585769 3.0909585769 3.0909585769 3.0909585769 3.0909585769 3.0909585769 3.0909585769 
3.0909585769 3.0909585769 3.0909585769 3.0909585769 3.0909585769 3.0909585769 3.0909585769 3.0909585769 3.0909585769 
3.0909585769 3.0909585769 3.0909585769 3.0909585769 3.0909585769 3.0909585769 3.0909585769 3.0909585769 3.0909585769 
3.0909585769 3.0909585769 3.0909585769 3.0909585769 3.0909585769 3.0909585769 3.0909585769 3.0909585769 3.0909585769 
3.0909585769 3.0909585769 3.0909585769 3.0909585769 3.0909585769 3.0909585769 3.0909585769 3.0909585769 3.0909585769 
3.0909585769 3.0909585769 3.0909585769 3.0909585769 3.0909585769 3.0909585769 3.0909585769 3.0909585769 3.0909585769 
3.0909585769 3.0909585769 3.0909585769 3.0909585769 3.0909585769 3.0909585769 3.0909585769 3.0909585769 3.0909585769 
3.0909585769 3.0909585769 3.0909585769 3.0909585769 3.0909585769 3.0909585769 3.0909585769 3.0909585769 3.0909585769 
3.0909585769 3.0909585769 3.0909585769 3.0909585769 3.0909585769 3.0909585769 3.0909585769 3.0909585769 3.0909585769 
3.0909585769 3.0909585769 3.0909585769 3.0909585769 3.0909585769 3.0909585769 3.0909585769 3.0909585769 3.0909585769 
3.0909585769 3.0909585769 3.0909585769 3.0909585769 3.0909585769 3.0909585769 3.0909585769 3.0909585769 3.0909585769 
3.0909585769 3.0909585769 3.0909585769 3.0909585769 3.0909585769 3.0909585769 3.0909585769 3.0909585769 3.0909585769 
3.0909585769 3.0909585769 3.0909585769 3.0909585769 3.0909585769 3.0909585769 3.0909585769 3.0909585769 3.0909585769 
3.0909585769 3.0909585769 3.0909585769 3.0909585769 3.0909585769 3.0909585769 3.0909585769 3.0909585769 3.0909585769 
3.0909585769 3.0909585769 3.0909585769 3.0909585769 3.0909585769 3.0909585769 3.0909585769 3.0909585769 3.0909585769 
3.0909585769 3.0909585769 3.0909585769 3.0909585769 3.0909585769 3.0909585769 3.0909585769 3.0909585769 3.0909585769 
3.0909585769 3.0909585769 3.0909585769 3.0909585769 3.0909585769 3.0909585769 3.0909585769 3.0909585769 3.0909585769 
3.0909585769 3.0909585769 3.0909585769 3.0909585769 3.0909585769 3.0909585769 3.0909585769 3.0909585769 3.0909585769 
3.0909585769 3.0909585769 3.0909585769 3.0909585769 3.0909585769 3.0909585769 3.0909585769 3.0909585769 3.0909585769 
3.0909585769 3.0909585769 3.0909585769 3.0909585769 3.0909585769 3.0909585769 3.0909585769 3.0909585769 3.0909585769 
3.0909585769 3.0909585769 3.0909585769 3.0909585769 3.0909585769 3.0909585769 3.0909585769 3.0909585769 3.0909585769 
3.0909585769 3.0909585769 3.0909585769 3.0909585769 3.0909585769 3.0909585769 3.0909585769 3.0909585769 3.0909585769 
3.0909585769 3.0909585769 3.0909585769 3.0909585769 3.0909585769 3.0909585769 3.0909585769 3.0909585769 3.0909585769 
3.0909585769 3.0909585769 3.0909585769 3.0909585769 3.0909585769 3.0909585769 3.0909585769 3.0909585769 3.0909585769 
3.0909585769 3.0909585769 3.0909585769 3.0909585769 3.0909585769 3.0909585769 3.0909585769 3.0909585769 3.0909585769 
3.0909585769 3.0909585769 3.0909585769 3.0909585769 3.0909585769 3.0909585769 3.0909585769 3.0909585769 3.0909585769 
3.0909585769 3.0909585769 3.0909585769 3.0909585769 3.0909585769 3.0909585769 3.0909585769 3.0909585769 3.0909585769 
3.0909585769 3.0909585769 3.0909585769 3.0909585769 3.0909585769 3.0909585769 3.0909585769 3.0909585769 3.0909585769 
3.0909585769 3.0909585769 3.0909585769 3.0909585769 3.0909585769 3.0909585769 3.0909585769 3.0909585769 3.0909585769 
3.0909585769 3.0909585769 3.0909585769 3.0909585769 3.0909585769 3.0909585769 3.0909585769 3.0909585769 3.0909585769 
3.0909585769 3.0909585769 3.0909585769 3.0909585769 3.0909585769 3.0909585769 3.0909585769 3.0909585769 3.0909585769 
3.0909585769 3.0909585769 3.0909585769 3.0909585769 3.0909585769 3.0909585769 3.0909585769 3.0909585769 3.0909585769 
3.0909585769 3.0909585769 3.0909585769 3.0909585769 3.0909585769 3.0909585769 3.0909585769 3.0909585769 3.0909585769 
3.0909585769 3.0909585769 3.0909585769 3.0909585769 3.0909585769 3.0909585769 3.0909585769 3.0909585769 3.0909585769 
3.0909585769 3.0909585769 3.0909585769 3.0909585769 3.0909585769 3.0909585769 3.0909585769 3.0909585769 3.0909585769 
3.0909585769 3.0909585769 3.0909585769 3.0909585769 3.0909585769 3.0909585769 3.0909585769 3.0909585769 3.0909585769 
3.0909585769 3.0909585769 3.0909585769 3.0909585769 3.0909585769 3.0909585769 3.0909585769 3.0909585769 3.0909585769 
3.0909585769 3.0909585769 3.0909585769 3.0909585769 3.0909585769 3.0909585769 3.0909585769 3.0909585769 3.0909585769 
3.0909585769 3.0909585769 3.0909585769 3.0909585769 3.0909585769 3.0909585769 3.0909585769 3.0909585769 3.0909585769 
3.0909585769 3.0909585769 3.0909585769 3.0909585769 3.0909585769 3.0909585769 3.0909585769 3.0909585769 3.0909585769 
3.0909585769 3.0909585769 3.1040977935 3.1040977935 3.1040977935 3.1040977935 3.0909585769 3.0909585769 3.0909585769 
3.0909585769 3.0909585769 3.0909585769 3.1040977935 3.1040977935 3.1040977935 3.0909585769 3.0909585769 3.0909585769 
3.0909585769 3.0909585769 3.0909585769 3.1040977935 3.1040977935 3.1040977935 3.1040977935 3.1040977935 3.0909585769 
3.0909585769 3.0909585769 3.0909585769 3.0909585769 3.0909585769 3.1040977935 3.1040977935 3.1040977935 3.1040977935 
3.1040977935 3.0909585769 3.0909585769 3.0909585769 3.0909585769 3.0909585769 3.0909585769 3.1040977935 3.1040977935 
3.1040977935 3.1040977935 3.0909585769 3.0909585769 3.0909585769 3.0909585769 3.0909585769 3.0909585769 3.1040977935 
3.1040977935 3.1040977935 3.0909585769 3.0909585769 3.0909585769 3.0909585769 3.0909585769 3.0909585769 3.0909585769 
3.0909585769 3.1040977935 3.1040977935 3.1040977935 3.1040977935 3.0909585769 3.0909585769 3.0909585769 3.0909585769 
3.0909585769 3.0909585769 3.1040977935 3.1040977935 3.0909585769 3.0909585769 3.0909585769 3.0909585769 3.0909585769 
3.0909585769 3.0909585769 3.1040977935 3.1040977935 3.0909585769 3.0909585769 3.0909585769 3.0909585769 3.0909585769 
3.0909585769 3.1040977935 3.1040977935 3.0909585769 3.0909585769 3.0909585769 3.0909585769 3.0909585769 3.0909585769 
3.1040977935 3.1040977935 3.1040977935 3.0909585769 3.0909585769 3.0909585769 3.0909585769 3.0909585769 3.0909585769 
3.0909585769 3.1040977935 3.1040977935 3.1040977935 3.0909585769 3.0909585769 3.0909585769 3.0909585769 3.0909585769 
3.0909585769 3.0909585769 3.0909585769 3.1040977935 3.1040977935 3.0909585769 3.0909585769 3.0909585769 3.0909585769 
3.0909585769 3.0909585769 3.1040977935 3.1040977935 3.1040977935 3.1040977935 3.0909585769 3.0909585769 3.0909585769 
3.0909585769 3.0909585769 3.0909585769 3.0909585769 3.1040977935 3.1040977935 3.0909585769 3.0909585769 3.0909585769 
3.0909585769 3.0909585769 3.0909585769 3.1040977935 3.1040977935 3.1040977935 3.0909585769 3.0909585769 3.0909585769 
3.0909585769 3.0909585769 3.0909585769 3.0909585769 3.1040977935 3.1040977935 3.1040977935 3.0909585769 3.0909585769 
3.0909585769 3.0909585769 3.0909585769 3.0909585769 3.0909585769 3.0909585769 3.0909585769 3.0909585769 3.0909585769 
3.1040977935 3.1040977935 3.0909585769 3.0909585769 3.0909585769 3.0909585769 3.0909585769 3.0909585769 3.0909585769 
3.0909585769 3.1040977935 3.1040977935 3.1040977935 3.0909585769 3.0909585769 3.0909585769 3.0909585769 3.0909585769 
3.0909585769 3.0909585769 3.1040977935 3.1040977935 3.1040977935 3.0909585769 3.0909585769 3.0909585769 3.0909585769 
3.0909585769 3.0909585769 3.0909585769 3.1040977935 3.1040977935 3.1040977935 3.0909585769 3.0909585769 3.0909585769 
3.0909585769 3.0909585769 3.0909585769 3.0909585769 3.1040977935 3.1040977935 3.1040977935 3.0909585769 3.0909585769 
3.0909585769 3.0909585769 3.0909585769 3.0909585769 3.0909585769 3.1040977935 3.1040977935 3.1040977935 3.0909585769 
3.0909585769 3.0909585769 3.0909585769 3.0909585769 3.0909585769 3.0909585769 3.1040977935 3.1040977935 3.0909585769 
3.0909585769 3.0909585769 3.0909585769 3.1040977935 3.1040977935 3.0909585769 3.0909585769 3.0909585769 3.1040977935 
3.1040977935 3.0909585769 3.0909585769 3.0909585769 3.0909585769 3.0909585769 3.1040977935 3.1040977935 3.1040977935 
3.1040977935 3.0909585769 3.0909585769 3.0909585769 3.1040977935 3.1172370101 3.1172370101 3.1172370101 3.1172370101 
3.1172370101 3.1172370101 3.1040977935 3.0909585769 3.0909585769 3.0909585769 3.1040977935 3.1172370101 3.1172370101 
3.1172370101 3.1040977935 3.0909585769 3.0909585769 3.0909585769 3.1040977935 3.1172370101 3.1172370101 3.1172370101 
3.1172370101 3.1040977935 3.1040977935 3.0909585769 3.0909585769 3.0909585769 3.0909585769 3.1040977935 3.1172370101 
3.1172370101 3.1172370101 3.1040977935 3.0909585769 3.0909585769 3.0909585769 3.1040977935 3.1172370101 3.1172370101 
3.1040977935 3.1040977935 3.0909585769 3.0909585769 3.0909585769 3.1040977935 3.1172370101 3.1172370101 3.1172370101 
3.1040977935 3.0909585769 3.0909585769 3.0909585769 3.1040977935 3.1040977935 3.1172370101 3.1172370101 3.1172370101 
3.1040977935 3.0909585769 3.0909585769 3.0909585769 3.1040977935 3.1172370101 3.1172370101 3.1040977935 3.0909585769 
3.0909585769 3.0909585769 3.0909585769 3.1040977935 3.1172370101 3.1172370101 3.1040977935 3.1040977935 3.0909585769 
3.0909585769 3.0909585769 3.0909585769 3.1040977935 3.1172370101 3.1172370101 3.1172370101 3.1172370101 3.1040977935 
3.0909585769 3.0909585769 3.0909585769 3.1040977935 3.1172370101 3.1172370101 3.1040977935 3.0909585769 3.0909585769 
3.0909585769 3.1040977935 3.1172370101 3.1172370101 3.1040977935 3.0909585769 3.0909585769 3.0778193604 3.0778193604 
3.0778193604 3.0778193604 3.0778193604 3.0778193604 3.0778193604 3.0909585769 3.1040977935 3.1172370101 3.1172370101 
3.1040977935 3.1040977935 3.0909585769 3.0909585769 3.0909585769 3.0778193604 3.0778193604 3.0778193604 3.0778193604 
3.0778193604 3.0909585769 3.1040977935 3.1172370101 3.1303762267 3.1303762267 3.1303762267 3.1303762267 3.1303762267 
3.1172370101 3.1172370101 3.1040977935 3.0909585769 3.0909585769 3.0778193604 3.0778193604 3.0778193604 3.0909585769 
3.1040977935 3.1172370101 3.1172370101 3.1303762267 3.1303762267 3.1303762267 3.1172370101 3.1040977935 3.0909585769 
3.0909585769 3.0778193604 3.0778193604 3.0778193604 3.0778193604 3.0909585769 3.1040977935 3.1172370101 3.1303762267 
3.1303762267 3.1303762267 3.1172370101 3.1040977935 3.0909585769 3.0909585769 3.0778193604 3.0778193604 3.0909585769 
3.1040977935 3.1172370101 3.1303762267 3.1303762267 3.1303762267 3.1172370101 3.1040977935 3.0909585769 3.0909585769 
3.0778193604 3.0778193604 3.0778193604 3.0909585769 3.0909585769 3.1040977935 3.1172370101 3.1303762267 3.1303762267 
3.1303762267 3.1303762267 3.1172370101 3.1040977935 3.1040977935 3.0909585769 3.0909585769 3.0909585769 3.0778193604 
3.0778193604 3.0778193604 3.0778193604 3.0909585769 3.1040977935 3.1172370101 3.1303762267 3.1303762267 3.1172370101 
3.1172370101 3.1040977935 3.0909585769 3.0909585769 3.0778193604 3.0778193604 3.0778193604 3.0909585769 3.1040977935 
3.1172370101 3.1172370101 3.1303762267 3.1303762267 3.1172370101 3.1040977935 3.0909585769 3.0909585769 3.0778193604 
3.0778193604 3.0778193604 3.0909585769 3.1040977935 3.1172370101 3.1303762267 3.1303762267 3.1172370101 3.1040977935 
3.0909585769 3.0909585769 3.0778193604 3.0778193604 3.0778193604 3.0909585769 3.1040977935 3.1172370101 3.1303762267 
3.1303762267 3.1303762267 3.1172370101 3.1040977935 3.0909585769 3.0909585769 3.0909585769 3.0778193604 3.0778193604 
3.0778193604 3.0909585769 3.1040977935 3.1172370101 3.1303762267 3.1303762267 3.1172370101 3.1172370101 3.1040977935 
3.0909585769 3.0909585769 3.0778193604 3.0778193604 3.0778193604 3.0909585769 3.1040977935 3.1172370101 3.1303762267 
3.1435154432 3.1435154432 3.1435154432 3.1435154432 3.1303762267 3.1303762267 3.1172370101 3.1172370101 3.1172370101 
3.1172370101 3.1172370101 3.1172370101 3.1172370101 3.1040977935 3.0909585769 3.0909585769 3.0778193604 3.0778193604 
3.0778193604 3.0909585769 3.1040977935 3.1040977935 3.1172370101 3.1303762267 3.1303762267 3.1435154432 3.1435154432 
3.1435154432 3.1435154432 3.1303762267 3.1172370101 3.1172370101 3.1040977935 3.1040977935 3.0909585769 3.0909585769 
3.0778193604 3.0778193604 3.0909585769 3.1040977935 3.1172370101 3.1303762267 3.1435154432 3.1435154432 3.1435154432 
3.1303762267 3.1172370101 3.1172370101 3.1040977935 3.0909585769 3.0909585769 3.0909585769 3.0778193604 3.0778193604 
3.0778193604 3.0909585769 3.1040977935 3.1172370101 3.1172370101 3.1303762267 3.1435154432 3.1435154432 3.1435154432 
3.1303762267 3.1172370101 3.1040977935 3.0909585769 3.0909585769 3.0909585769 3.0778193604 3.0778193604 3.0909585769 
3.1040977935 3.1172370101 3.1303762267 3.1303762267 3.1435154432 3.1435154432 3.1435154432 3.1303762267 3.1172370101 
3.1172370101 3.1040977935 3.0909585769 3.0909585769 3.0778193604 3.0778193604 3.0909585769 3.1040977935 3.1172370101 
3.1303762267 3.1435154432 3.1435154432 3.1303762267 3.1172370101 3.1040977935 3.0909585769 3.0778193604 3.0778193604 