# vtk DataFile Version 4.2
vtk output
ASCII
DATASET POLYDATA
POINTS 9316 float
-5899.64 -4250.41 0 -5901.94 -4233.41 0 801.133 -4233.23 0 
805.305 -4250.23 0 3176.48 -4250.16 0 3181.84 -4236.58 0 
3183.56 -4233.16 0 5417.54 -4233.1 0 5425.63 -4250.1 0 
-5904.24 -4216.41 0 796.961 -4216.23 0 3189.88 -4216.16 0 
5409.45 -4216.1 0 -5906.54 -4199.41 0 792.788 -4199.23 0 
3196.57 -4199.16 0 5401.36 -4199.1 0 5401.9 -4200.24 0 
-5908.84 -4182.41 0 788.616 -4182.22 0 3203.27 -4182.16 0 
5393.27 -4182.1 0 -5911.14 -4165.4 0 784.444 -4165.22 0 
3209.97 -4165.16 0 5385.18 -4165.1 0 -5913.44 -4148.4 0 
780.271 -4148.22 0 3216.66 -4148.16 0 5377.08 -4148.1 0 
-5915.74 -4131.4 0 776.099 -4131.22 0 776.778 -4133.99 0 
3218.84 -4142.62 0 3223.36 -4131.16 0 5368.99 -4131.1 0 
-5918.04 -4114.4 0 771.927 -4114.22 0 3230.05 -4114.15 0 
5360.9 -4114.1 0 5364.9 -4122.5 0 -5920.34 -4097.4 0 
766.999 -4097.22 0 3236.75 -4097.15 0 5352.81 -4097.1 0 
-5920.4 -4096.99 0 -5922.65 -4080.4 0 756.029 -4080.22 0 
3243.45 -4080.15 0 5344.72 -4080.1 0 -5924.95 -4063.4 0 
743.474 -4063.22 0 3250.14 -4063.15 0 5336.63 -4063.09 0 
-5927.25 -4046.4 0 730.918 -4046.22 0 739.781 -4058.22 0 
3255.85 -4048.66 0 3256.84 -4046.15 0 5328.53 -4046.09 0 
-5929.55 -4029.4 0 718.363 -4029.22 0 3263.53 -4029.15 0 
5322.76 -4029.09 0 5327.91 -4044.37 0 -5931.85 -4012.4 0 
705.807 -4012.22 0 3270.23 -4012.15 0 5321.09 -4012.09 0 
-5934.15 -3995.4 0 693.252 -3995.22 0 702.783 -4008.12 0 
3276.93 -3995.15 0 5319.42 -3995.09 0 -5936.45 -3978.39 0 
680.696 -3978.22 0 3283.62 -3978.15 0 5317.75 -3978.09 0 
-5938.75 -3961.39 0 668.141 -3961.22 0 3290.32 -3961.14 0 
5316.08 -3961.09 0 -5941.05 -3944.39 0 655.585 -3944.21 0 
665.785 -3958.03 0 3292.86 -3954.7 0 3297.02 -3944.14 0 
5314.41 -3944.09 0 -5943.35 -3927.39 0 643.029 -3927.21 0 
3303.71 -3927.14 0 5312.74 -3927.09 0 -5945.65 -3910.39 0 
630.474 -3910.21 0 3310.41 -3910.14 0 5311.07 -3910.09 0 
-5947.95 -3893.39 0 619.727 -3893.21 0 628.787 -3907.93 0 
3317.1 -3893.14 0 5309.39 -3893.09 0 -5950.25 -3876.39 0 
613.635 -3876.21 0 3323.8 -3876.14 0 5307.72 -3876.08 0 
-5952.55 -3859.39 0 609.774 -3859.21 0 3329.86 -3860.74 0 
3330.5 -3859.14 0 5306.05 -3859.08 0 -5954.85 -3842.39 0 
607.107 -3842.21 0 3337.19 -3842.14 0 5304.38 -3842.08 0 
-5957.15 -3825.39 0 605.156 -3825.21 0 3343.89 -3825.13 0 
5302.71 -3825.08 0 -5957.39 -3823.66 0 -5959.45 -3808.39 0 
603.665 -3808.21 0 3350.58 -3808.13 0 5301.04 -3808.08 0 
-5961.75 -3791.38 0 603.142 -3791.21 0 3357.28 -3791.13 0 
5299.37 -3791.08 0 -5964.05 -3774.38 0 603.226 -3774.21 0 
3363.98 -3774.13 0 5297.7 -3774.08 0 -5966.35 -3757.38 0 
603.31 -3757.2 0 3366.87 -3766.79 0 3370.67 -3757.13 0 
5296.03 -3757.08 0 -5968.65 -3740.38 0 603.394 -3740.2 0 
3377.37 -3740.13 0 5294.35 -3740.08 0 -5970.95 -3723.38 0 
603.479 -3723.2 0 3377.56 -3723.13 0 5292.68 -3723.08 0 
-5973.25 -3706.38 0 603.563 -3706.2 0 3370.33 -3706.13 0 
5291.01 -3706.07 0 -5975.56 -3689.38 0 603.647 -3689.2 0 
3366.87 -3701.69 0 3357.08 -3689.13 0 5289.34 -3689.07 0 
5290.92 -3705.18 0 -5977.86 -3672.38 0 603.731 -3672.2 0 
3343.83 -3672.13 0 5287.67 -3672.07 0 -5980.16 -3655.38 0 
603.815 -3655.2 0 3330.58 -3655.13 0 5286 -3655.07 0 
-5982.46 -3638.38 0 603.899 -3638.2 0 3329.88 -3654.22 0 
3317.33 -3638.12 0 5284.33 -3638.07 0 -5984.76 -3621.37 0 
603.984 -3621.2 0 3304.08 -3621.12 0 5283.55 -3621.07 0 
-5987.06 -3604.37 0 604.068 -3604.2 0 3292.88 -3606.75 0 
3290.83 -3604.12 0 5282.9 -3604.07 0 -5989.36 -3587.37 0 
604.152 -3587.19 0 3277.58 -3587.12 0 5282.36 -3587.07 0 
-5991.66 -3570.37 0 604.236 -3570.19 0 3264.33 -3570.12 0 
5281.9 -3570.07 0 -5993.96 -3553.37 0 604.32 -3553.19 0 
3255.88 -3559.28 0 3251.07 -3553.12 0 5281.52 -3553.07 0 
-5994.37 -3550.33 0 -5996.26 -3536.37 0 604.404 -3536.19 0 
3237.82 -3536.12 0 5281.18 -3536.07 0 -5998.56 -3519.37 0 
604.489 -3519.19 0 3224.57 -3519.12 0 5282.71 -3519.06 0 
-6000.86 -3502.37 0 604.573 -3502.19 0 3218.88 -3511.82 0 
3211.32 -3502.12 0 5284.26 -3502.06 0 -6003.16 -3485.37 0 
604.657 -3485.19 0 3198.07 -3485.12 0 5285.81 -3485.06 0 
-6005.46 -3468.37 0 604.741 -3468.19 0 3184.82 -3468.12 0 
5287.37 -3468.06 0 -6007.76 -3451.37 0 604.825 -3451.19 0 
3181.88 -3464.35 0 3171.57 -3451.12 0 5288.92 -3451.06 0 
-6010.06 -3434.36 0 604.909 -3434.19 0 3158.32 -3434.12 0 
5290.48 -3434.06 0 -6012.36 -3417.36 0 604.994 -3417.18 0 
3145.07 -3417.12 0 5290.94 -3428.96 0 5292.03 -3417.06 0 
-6014.66 -3400.36 0 605.078 -3400.18 0 3144.88 -3416.88 0 
3131.82 -3400.12 0 5293.58 -3400.06 0 -6016.96 -3383.36 0 
605.162 -3383.18 0 3118.57 -3383.11 0 5295.14 -3383.06 0 
-6019.26 -3366.36 0 605.246 -3366.18 0 3107.89 -3369.41 0 
3105.32 -3366.11 0 5296.69 -3366.05 0 -6021.56 -3349.36 0 
605.33 -3349.18 0 3092.07 -3349.11 0 5298.24 -3349.05 0 
-6023.86 -3332.36 0 605.415 -3332.18 0 3078.82 -3332.11 0 
5299.8 -3332.05 0 -6026.17 -3315.36 0 605.499 -3315.18 0 
3070.89 -3321.94 0 3065.57 -3315.11 0 5301.35 -3315.05 0 
-6028.47 -3298.36 0 605.583 -3298.18 0 3052.32 -3298.11 0 
5302.9 -3298.05 0 -6030.77 -3281.36 0 605.667 -3281.18 0 
3039.06 -3281.11 0 5304.46 -3281.05 0 -6031.36 -3277 0 
-6033.07 -3264.35 0 605.751 -3264.18 0 3033.89 -3274.47 0 
3025.81 -3264.11 0 5306.01 -3264.05 0 -6035.37 -3247.35 0 
605.835 -3247.17 0 3012.56 -3247.11 0 5307.56 -3247.05 0 
-6037.67 -3230.35 0 605.92 -3230.17 0 2999.31 -3230.11 0 
5309.12 -3230.05 0 -6039.97 -3213.35 0 606.004 -3213.17 0 
2996.89 -3227 0 2986.06 -3213.11 0 5310.67 -3213.05 0 
-6042.27 -3196.35 0 606.088 -3196.17 0 2972.81 -3196.11 0 
5312.22 -3196.04 0 -6044.57 -3179.35 0 606.172 -3179.17 0 
2959.89 -3179.53 0 2959.56 -3179.11 0 5313.78 -3179.04 0 
-6046.87 -3162.35 0 606.256 -3162.17 0 2946.31 -3162.11 0 
5315.33 -3162.04 0 -6049.17 -3145.35 0 606.341 -3145.17 0 
2933.06 -3145.11 0 5316.88 -3145.04 0 -6051.47 -3128.35 0 
606.425 -3128.17 0 2922.89 -3132.06 0 2919.81 -3128.1 0 
5318.44 -3128.04 0 -6053.77 -3111.35 0 606.509 -3111.17 0 
2906.56 -3111.1 0 5319.99 -3111.04 0 -6056.07 -3094.35 0 
606.593 -3094.17 0 2893.31 -3094.1 0 5321.54 -3094.04 0 
-6058.37 -3077.34 0 606.677 -3077.16 0 2885.9 -3084.6 0 
2880.06 -3077.1 0 5323.1 -3077.04 0 -6060.67 -3060.34 0 
606.761 -3060.16 0 2866.81 -3060.1 0 5324.65 -3060.04 0 
-6062.97 -3043.34 0 606.846 -3043.16 0 2853.56 -3043.1 0 
5326.2 -3043.03 0 -6065.27 -3026.34 0 606.93 -3026.16 0 
2848.9 -3037.13 0 2840.31 -3026.1 0 5327.76 -3026.03 0 
-6067.57 -3009.34 0 607.014 -3009.16 0 2827.05 -3009.1 0 
5327.97 -3023.74 0 5329.31 -3009.03 0 -6068.34 -3003.67 0 
-6069.87 -2992.34 0 607.098 -2992.16 0 2813.8 -2992.1 0 
5330.86 -2992.03 0 -6072.17 -2975.34 0 607.075 -2975.16 0 
2811.9 -2989.66 0 2800.55 -2975.1 0 5332.42 -2975.03 0 
-6074.47 -2958.34 0 607.02 -2958.16 0 2787.3 -2958.1 0 
5333.97 -2958.03 0 -6076.77 -2941.34 0 606.965 -2941.16 0 
2774.9 -2943.09 0 2773.97 -2941.1 0 5335.52 -2941.03 0 
-6079.08 -2924.34 0 606.91 -2924.16 0 2774.9 -2937.66 0 
2779.06 -2924.1 0 5337.08 -2924.03 0 -6081.38 -2907.34 0 
606.855 -2907.15 0 2783.15 -2907.1 0 5338.63 -2907.03 0 
-6083.68 -2890.33 0 606.8 -2890.15 0 2787.74 -2890.09 0 
5340.18 -2890.03 0 -6085.98 -2873.33 0 606.745 -2873.15 0 
2792.32 -2873.09 0 5341.74 -2873.02 0 -6088.28 -2856.33 0 
606.69 -2856.15 0 2796.91 -2856.09 0 5343.29 -2856.02 0 
-6090.58 -2839.33 0 606.635 -2839.15 0 2801.5 -2839.09 0 
5344.84 -2839.02 0 -6092.88 -2822.33 0 606.58 -2822.15 0 
2806.09 -2822.09 0 5346.4 -2822.02 0 -6095.18 -2805.33 0 
606.524 -2805.15 0 2810.67 -2805.09 0 5347.95 -2805.02 0 
-6097.48 -2788.33 0 606.469 -2788.15 0 2811.91 -2800.5 0 
2815.26 -2788.09 0 5349.5 -2788.02 0 -6099.5 -2771.33 0 
606.414 -2771.15 0 2819.85 -2771.09 0 5351.06 -2771.02 0 
-6104.31 -2754.33 0 606.359 -2754.15 0 2824.44 -2754.09 0 
5352.61 -2754.02 0 -6105.33 -2750.37 0 -6109.91 -2737.33 0 
606.304 -2737.14 0 2829.02 -2737.08 0 5354.16 -2737.02 0 
-6115.89 -2720.33 0 606.249 -2720.14 0 2833.61 -2720.08 0 
5355.72 -2720.02 0 -6121.87 -2703.32 0 606.194 -2703.14 0 
2838.2 -2703.08 0 5357.27 -2703.01 0 -6127.85 -2686.32 0 
606.139 -2686.14 0 2842.79 -2686.08 0 5358.82 -2686.01 0 
-6133.83 -2669.32 0 606.084 -2669.14 0 2847.37 -2669.08 0 
5360.38 -2669.01 0 -6139.81 -2652.32 0 606.029 -2652.14 0 
2848.92 -2663.35 0 2851.96 -2652.08 0 5361.93 -2652.01 0 
-6142.32 -2645.17 0 -6145.78 -2635.32 0 605.973 -2635.14 0 
2856.55 -2635.08 0 5363.48 -2635.01 0 -6151.76 -2618.32 0 
605.918 -2618.14 0 2861.14 -2618.08 0 5364.99 -2618.52 0 
5365.04 -2618.01 0 -6157.74 -2601.32 0 605.863 -2601.14 0 
2865.72 -2601.08 0 5366.59 -2601.01 0 -6163.72 -2584.32 0 
605.808 -2584.14 0 2870.31 -2584.07 0 5368.14 -2584.01 0 
-6169.7 -2567.32 0 605.753 -2567.13 0 2874.9 -2567.07 0 
5369.7 -2567.01 0 -6175.68 -2550.32 0 605.698 -2550.13 0 
2879.49 -2550.07 0 5371.25 -2550 0 -6179.32 -2539.97 0 
-6181.65 -2533.32 0 605.643 -2533.13 0 2884.08 -2533.07 0 
5372.8 -2533 0 -6187.63 -2516.32 0 605.588 -2516.13 0 
2885.93 -2526.2 0 2888.66 -2516.07 0 5375.42 -2516 0 
-6193.61 -2499.31 0 605.533 -2499.13 0 2893.25 -2499.07 0 
5389.58 -2499 0 -6199.59 -2482.31 0 605.478 -2482.13 0 
2897.84 -2482.07 0 5402 -2485.78 0 5405.55 -2482 0 
-6205.57 -2465.31 0 605.422 -2465.13 0 2902.43 -2465.07 0 
5421.53 -2465 0 -6211.55 -2448.31 0 601.972 -2448.13 0 
2907.01 -2448.07 0 5437.5 -2448 0 -6216.31 -2434.76 0 
-6217.53 -2431.31 0 599.189 -2431.13 0 2911.6 -2431.06 0 
5439 -2446.4 0 5453.47 -2431 0 -6223.5 -2414.31 0 
597.599 -2414.13 0 2916.19 -2414.06 0 5469.44 -2413.99 0 
-6229.48 -2397.31 0 593.477 -2397.13 0 2920.78 -2397.06 0 
5476.01 -2407.01 0 5485.42 -2396.99 0 -6235.46 -2380.31 0 
583.621 -2380.12 0 591.875 -2393.33 0 2922.94 -2389.05 0 
2924.86 -2380.06 0 5501.39 -2379.99 0 -6241.44 -2363.31 0 
577.198 -2363.12 0 2922.97 -2363.06 0 5513.01 -2367.62 0 
5517.36 -2362.99 0 -6247.42 -2346.31 0 571.956 -2346.12 0 
2922.94 -2362.92 0 2918.79 -2346.06 0 5533.33 -2345.99 0 
-6253.31 -2329.56 0 -6253.4 -2329.31 0 564.783 -2329.12 0 
2914.6 -2329.06 0 5549.31 -2328.99 0 -6259.38 -2312.31 0 
[...]
POINT_DATA 9316
SCALARS Pressure double
LOOKUP_TABLE default
3.0909585769 3.0909585769 3.0909585769 3.0909585769 3.0909585769 3.0909585769 3.0909585769 3.0909585769 3.0909585769 
3.0909585769 3.0909585769 3.0909585769 3.0909585769 3.0909585769 3.0909585769 3.0909585769 3.0909585769 3.0909585769 
3.0909585769 3.0909585769 3.0909585769 3.0909585769 3.0909585769 3.0909585769 3.0909585769 3.0909585769 3.0909585769 
3.0909585769 3.0909585769 3.0909585769 3.0909585769 3.0909585769 3.0909585769 3.0909585769 3.0909585769 3.0909585769 
3.0909585769 3.0909585769 3.0909585769 3.0909585769 3.0909585769 3.0909585769 3.0909585769 3.0909585769 3.0909585769 
3.0909585769 3.0909585769 3.0909585769 3.0909585769 3.0909585769 3.0909585769 3.0909585769 3.0909585769 3.0909585769 
3.0909585769 3.0909585769 3.0909585769 3.0909585769 3.0909585769 3.0909585769 3.0909585769 3.0909585769 3.0909585769 
3.0909585769 3.0909585769 3.0909585769 3.0909585769 3.0909585769 3.0909585769 3.0909585769 3.0909585769 3.0909585769 
3.0909585769 3.0909585769 3.0909585769 3.0909585769 3.0909585769 3.0909585769 3.0909585769 3.0909585769 3.0909585769 
3.0909585769 3.0909585769 3.0909585769 3.0909585769 3.0909585769 3.0909585769 3.0909585769 3.0909585769 3.0909585769 
3.0909585769 3.0909585769 3.0909585769 3.0909585769 3.0909585769 3.0909585769 3.0909585769 3.0909585769 3.0909585769 
3.0909585769 3.0909585769 3.0909585769 3.0909585769 3.0909585769 3.0909585769 3.0909585769 3.0909585769 3.0909585769 
3.0909585769 3.0909585769 3.0909585769 3.0909585769 3.0909585769 3.0909585769 3.0909585769 3.0909585769 3.0909585769 
3.0909585769 3.0909585769 3.0909585769 3.0909585769 3.0909585769 3.0909585769 3.0909585769 3.0909585769 3.0909585769 
3.0909585769 3.0909585769 3.0909585769 3.0909585769 3.0909585769 3.0909585769 3.0909585769 3.0909585769 3.0909585769 
3.0909585769 3.0909585769 3.0909585769 3.0909585769 3.0909585769 3.0909585769 3.0909585769 3.0909585769 3.0909585769 
3.0909585769 3.0909585769 3.0909585769 3.0909585769 3.0909585769 3.0909585769 3.0909585769 3.0909585769 3.0909585769 
3.0909585769 3.0909585769 3.0909585769 3.0909585769 3.0909585769 3.0909585769 3.0909585769 3.0909585769 3.0909585769 
3.0909585769 3.0909585769 3.0909585769 3.0909585769 3.0909585769 3.0909585769 3.0909585769 3.0909585769 3.0909585769 
3.0909585769 3.0909585769 3.0909585769 3.0909585769 3.0909585769 3.0909585769 3.0909585769 3.0909585769 3.0909585769 
3.0909585769 3.0909585769 3.0909585769 3.0909585769 3.0909585769 3.0909585769 3.0909585769 3.0909585769 3.0909585769 
3.0909585769 3.0909585769 3.0909585769 3.0909585769 3.0909585769 3.0909585769 3.0909585769 3.0909585769 3.0909585769 
3.0909585769 3.0909585769 3.0909585769 3.0909585769 3.0909585769 3.0909585769 3.0909585769 3.0909585769 3.0909585769 
3.0909585769 3.0909585769 3.0909585769 3.0909585769 3.0909585769 3.0909585769 3.0909585769 3.0909585769 3.0909585769 
3.0909585769 3.0909585769 3.0909585769 3.0909585769 3.0909585769 3.0909585769 3.0909585769 3.0909585769 3.0909585769 
3.0909585769 3.0909585769 3.0909585769 3.0909585769 3.0909585769 3.0909585769 3.0909585769 3.0909585769 3.0909585769 
3.0909585769 3.0909585769 3.0909585769 3.0909585769 3.0909585769 3.0909585769 3.0909585769 3.0909585769 3.0909585769 
3.0909585769 3.0909585769 3.0909585769 3.0909585769 3.0909585769 3.0909585769 3.0909585769 3.0909585769 3.0909585769 
3.0909585769 3.0909585769 3.0909585769 3.0909585769 3.0909585769 3.0909585769 3.0909585769 3.0909585769 3.0909585769 
3.0909585769 3.0909585769 3.0909585769 3.0909585769 3.0909585769 3.0909585769 3.0909585769 3.0909585769 3.0909585769 
3.0909585769 3.0909585769 3.0909585769 3.0909585769 3.0909585769 3.0909585769 3.0909585769 3.0909585769 3.0909585769 
3.0909585769 3.0909585769 3.0909585769 3.0909585769 3.0909585769 3.0909585769 3.0909585769 3.0909585769 3.0909585769 
3.0909585769 3.0909585769 3.0909585769 3.0909585769 3.0909585769 3.0909585769 3.0909585769 3.0909585769 3.0909585769 
3.0909585769 3.0909585769 3.0909585769 3.0909585769 3.0909585769 3.0909585769 3.0909585769 3.0909585769 3.0909585769 
3.0909585769 3.0909585769 3.0909585769 3.0909585769 3.0909585769 3.0909585769 3.0909585769 3.0909585769 3.0909585769 
3.0909585769 3.0909585769 3.0909585769 3.0909585769 3.0909585769 3.0909585769 3.0909585769 3.0909585769 3.0909585769 
3.0909585769 3.0909585769 3.0909585769 3.0909585769 3.0909585769 3.0909585769 3.0909585769 3.0909585769 3.0909585769 
3.0909585769 3.0909585769 3.0909585769 3.0909585769 3.0909585769 3.0909585769 3.0909585769 3.0909585769 3.0909585769 
3.0909585769 3.0909585769 3.0909585769 3.0909585769 3.0909585769 3.0909585769 3.0909585769 3.0909585769 3.0909585769 
3.0909585769 3.0909585769 3.0909585769 3.0909585769 3.0909585769 3.0909585769 3.0909585769 3.0909585769 3.0909585769 
3.0909585769 3.0909585769 3.0909585769 3.0909585769 3.0909585769 3.0909585769 3.0909585769 3.0909585769 3.0909585769 
3.0909585769 3.0909585769 3.0909585769 3.0909585769 3.0909585769 3.0909585769 3.0909585769 3.0909585769 3.0909585769 
3.0909585769 3.0909585769 3.0909585769 3.0909585769 3.0909585769 3.0909585769 3.0909585769 3.0909585769 3.0909585769 
3.0909585769 3.0909585769 3.0909585769 3.0909585769 3.0909585769 3.0909585769 3.0909585769 3.0909585769 3.0909585769 
3.0909585769 3.0909585769 3.0909585769 3.0909585769 3.0909585769 3.0909585769 3.0909585769 3.0909585769 3.0909585769 
3.0909585769 3.0909585769 3.0909585769 3.0909585769 3.0909585769 3.0909585769 3.0909585769 3.0909585769 3.0909585769 
3.0909585769 3.0909585769 3.0909585769 3.0909585769 3.0909585769 3.0909585769 3.0909585769 3.0909585769 3.0909585769 
3.0909585769 3.0909585769 3.0909585769 3.0909585769 3.0909585769 3.0909585769 3.0909585769 3.0909585769 3.0909585769 
3.0909585769 3.0909585769 3.0909585769 3.0909585769 3.0909585769 3.0909585769 3.0909585769 3.0909585769 3.0909585769 
3.0909585769 3.0909585769 3.0909585769 3.0909585769 3.0909585769 3.0909585769 3.0909585769 3.0909585769 3.0909585769 
3.0909585769 3.0909585769 3.0909585769 3.0909585769 3.0909585769 3.0909585769 3.0909585769 3.0909585769 3.0909585769 
3.0909585769 3.0909585769 3.0909585769 3.0909585769 3.0909585769 3.0909585769 3.0909585769 3.0909585769 3.0909585769 
3.0909585769 3.0909585769 3.0909585769 3.0909585769 3.0909585769 3.0909585769 3.0909585769 3.0909585769 3.0909585769 
3.0909585769 3.0909585769 3.0909585769 3.0909585769 3.0909585769 3.0909585769 3.0909585769 3.0909585769 3.0909585769 
3.0909585769 3.0909585769 3.0909585769 3.0909585769 3.0909585769 3.0909585769 3.0909585769 3.0909585769 3.0909585769 
3.0909585769 3.0909585769 3.0909585769 3.0909585769 3.0909585769 3.0909585769 3.0909585769 3.0909585769 3.0909585769 
3.0909585769 3.0909585769 3.0909585769 3.0909585769 3.0909585769 3.0909585769 3.0909585769 3.0909585769 3.0909585769 
3.0909585769 3.0909585769 3.0909585769 3.0909585769 3.0909585769 3.0909585769 3.0909585769 3.0909585769 3.0909585769 
3.0909585769 3.0909585769 3.0909585769 3.0909585769 3.0909585769 3.0909585769 3.0909585769 3.0909585769 3.0909585769 
3.0909585769 3.0909585769 3.0909585769 3.0909585769 3.0909585769 3.0909585769 3.0909585769 3.0909585769 3.0909585769 
3.0909585769 3.0909585769 3.0909585769 3.0909585769 3.0909585769 3.0909585769 3.0909585769 3.0909585769 3.0909585769 
3.0909585769 3.0909585769 3.0909585769 3.0909585769 3.0909585769 3.0909585769 3.0909585769 3.0909585769 3.0909585769 
3.0909585769 3.0909585769 3.0909585769 3.0909585769 3.0909585769 3.0909585769 3.0909585769 3.0909585769 3.0909585769 
3.0909585769 3.0909585769 3.0909585769 3.0909585769 3.0909585769 3.0909585769 3.0909585769 3.0909585769 3.0909585769 
3.0909585769 3.0909585769 3.0909585769 3.0909585769 3.0909585769 3.0909585769 3.0909585769 3.0909585769 3.0909585769 
3.0909585769 3.0909585769 3.0909585769 3.0909585769 3.0909585769 3.0909585769 3.0909585769 3.0909585769 3.0909585769 
3.0909585769 3.0909585769 3.0909585769 3.0909585769 3.0909585769 3.0909585769 3.0909585769 3.0909585769 3.0909585769 
3.0909585769 3.0909585769 3.0909585769 3.0909585769 3.0909585769 3.0909585769 3.0909585769 3.0909585769 3.0909585769 
3.0909585769 3.0909585769 3.0909585769 3.0909585769 3.0909585769 3.0909585769 3.0909585769 3.0909585769 3.0909585769 
3.0909585769 3.0909585769 3.0909585769 3.0909585769 3.0909585769 3.0909585769 3.0909585769 3.0909585769 3.0909585769 
3.0909585769 3.0909585769 3.0909585769 3.0909585769 3.0909585769 3.0909585769 3.0909585769 3.0909585769 3.0909585769 
3.0909585769 3.0909585769 3.0909585769 3.0909585769 3.0909585769 3.0909585769 3.0909585769 3.0909585769 3.0909585769 
3.0909585769 3.0909585769 3.0909585769 3.0909585769 3.0909585769 3.0909585769 3.0909585769 3.0909585769 3.0909585769 
3.0909585769 3.0909585769 3.0909585769 3.0909585769 3.0909585769 3.0909585769 3.0909585769 3.0909585769 3.0909585769 
3.0909585769 3.0909585769 3.0909585769 3.0909585769 3.0909585769 3.0909585769 3.0909585769 3.0909585769 3.0909585769 
3.0909585769 3.0909585769 3.0909585769 3.0909585769 3.0909585769 3.0909585769 3.0909585769 3.0909585769 3.0909585769 
3.0909585769 3.0909585769 3.0909585769 3.0909585769 3.0909585769 3.0909585769 3.0909585769 3.0909585769 3.0909585769 
3.0909585769 3.0909585769 3.0909585769 3.0909585769 3.0909585769 3.0909585769 3.0909585769 3.0909585769 3.0909585769 
3.0909585769 3.1040977935 3.1040977935 3.1040977935 3.1040977935 3.1040977935 3.1040977935 3.0909585769 3.0909585769 
3.0909585769 3.0909585769 3.0909585769 3.0909585769 3.0909585769 3.0909585769 3.1040977935 3.1040977935 3.1040977935 
3.1040977935 3.1040977935 3.1040977935 3.1040977935 3.0909585769 3.0909585769 3.0909585769 3.0909585769 3.0909585769 
3.0909585769 3.0909585769 3.0909585769 3.1040977935 3.1040977935 3.1040977935 3.1040977935 3.1040977935 3.1040977935 
3.0909585769 3.0909585769 3.0909585769 3.0909585769 3.0909585769 3.0909585769 3.0909585769 3.0909585769 3.0909585769 
3.1040977935 3.1040977935 3.1040977935 3.0909585769 3.0909585769 3.0909585769 3.0909585769 3.0909585769 3.0909585769 
3.0909585769 3.0909585769 3.1040977935 3.1040977935 3.1040977935 3.0909585769 3.0909585769 3.0909585769 3.0909585769 
3.0909585769 3.0909585769 3.0909585769 3.0909585769 3.0909585769 3.1040977935 3.1040977935 3.1040977935 3.0909585769 
3.0909585769 3.0909585769 3.0909585769 3.0909585769 3.0909585769 3.0909585769 3.0909585769 3.0909585769 3.0909585769 
3.1040977935 3.1040977935 3.1040977935 3.1040977935 3.0909585769 3.0909585769 3.0909585769 3.0909585769 3.0909585769 
3.0909585769 3.0909585769 3.0909585769 3.1040977935 3.1040977935 3.0909585769 3.0909585769 3.0909585769 3.0909585769 
3.0909585769 3.0909585769 3.0909585769 3.0909585769 3.0909585769 3.1040977935 3.1040977935 3.0909585769 3.0909585769 
3.0909585769 3.0909585769 3.0909585769 3.0909585769 3.0909585769 3.1040977935 3.1040977935 3.1040977935 3.0909585769 
3.0909585769 3.0909585769 3.1040977935 3.1040977935 3.1040977935 3.0909585769 3.0909585769 3.0909585769 3.1040977935 
3.1040977935 3.1040977935 3.0909585769 3.0909585769 3.0909585769 3.1040977935 3.1040977935 3.0909585769 3.0909585769 
3.0909585769 3.1040977935 3.1040977935 3.0909585769 3.0909585769 3.0909585769 3.1040977935 3.1040977935 3.1040977935 
3.0909585769 3.0909585769 3.0909585769 3.1040977935 3.1040977935 3.1040977935 3.0909585769 3.0909585769 3.0909585769 
3.0909585769 3.1040977935 3.1040977935 3.1040977935 3.0909585769 3.0909585769 3.0909585769 3.1040977935 3.1040977935 
3.1040977935 3.0909585769 3.0909585769 3.0909585769 3.0909585769 3.1040977935 3.1040977935 3.0909585769 3.0909585769 
3.0909585769 3.0909585769 3.1040977935 3.1040977935 3.0909585769 3.0909585769 3.0909585769 3.1040977935 3.1040977935 
3.0909585769 3.0909585769 3.0909585769 3.1040977935 3.1040977935 3.1040977935 3.0909585769 3.0909585769 3.0909585769 
3.1040977935 3.1040977935 3.0909585769 3.0909585769 3.0909585769 3.1040977935 3.1040977935 3.0909585769 3.0909585769 
3.0909585769 3.0909585769 3.1040977935 3.1040977935 3.1040977935 3.0909585769 3.0909585769 3.0909585769 3.1040977935 
3.1040977935 3.1040977935 3.0909585769 3.0909585769 3.0909585769 3.0909585769 3.1040977935 3.1040977935 3.0909585769 
3.0909585769 3.0909585769 3.1040977935 3.1040977935 3.0909585769 3.0909585769 3.0909585769 3.1040977935 3.1040977935 
3.0909585769 3.0909585769 3.0909585769 3.1040977935 3.1040977935 3.0909585769 3.0909585769 3.0909585769 3.0909585769 
3.1040977935 3.1040977935 3.1040977935 3.0909585769 3.0909585769 3.0909585769 3.1040977935 3.1040977935 3.1040977935 
3.0909585769 3.0909585769 3.0909585769 3.1040977935 3.1040977935 3.0909585769 3.0909585769 3.0909585769 3.1040977935 
3.1040977935 3.1040977935 3.0909585769 3.0909585769 3.0778193604 3.0778193604 3.0778193604 3.0778193604 3.0778193604 
3.0778193604 3.0778193604 3.0778193604 3.0778193604 3.0778193604 3.0909585769 3.1040977935 3.1040977935 3.0909585769 
3.0909585769 3.0778193604 3.0778193604 3.0778193604 3.0778193604 3.0778193604 3.0778193604 3.0778193604 3.0778193604 
3.0778193604 3.0909585769 3.1040977935 3.1040977935 3.0909585769 3.0909585769 3.0909585769 3.0909585769 3.0778193604 
3.0778193604 3.0778193604 3.0909585769 3.1040977935 3.1040977935 3.0909585769 3.0909585769 3.0778193604 3.0778193604 
3.0778193604 3.0909585769 3.1040977935 3.1040977935 3.1040977935 3.1040977935 3.0909585769 3.0909585769 3.0778193604 
3.0778193604 3.0778193604 3.0909585769 3.1040977935 3.1040977935 3.0909585769 3.0909585769 3.0778193604 3.0778193604 
3.0909585769 3.1040977935 3.1040977935 3.0909585769 3.0909585769 3.0778193604 3.0778193604 3.0778193604 3.0778193604 
3.0909585769 3.1040977935 3.1040977935 3.0909585769 3.0909585769 3.0778193604 3.0778193604 3.0909585769 3.1040977935 
3.1040977935 3.1172370101 3.1172370101 3.1172370101 3.1172370101 3.1172370101 3.1172370101 3.1172370101 3.1172370101 
3.1040977935 3.0909585769 3.0909585769 3.0778193604 3.0778193604 3.0778193604 3.0909585769 3.1040977935 3.1172370101 
3.1172370101 3.1172370101 3.1172370101 3.1040977935 3.0909585769 3.0909585769 3.0909585769 3.0778193604 3.0778193604 
3.0778193604 3.0909585769 3.1040977935 3.1172370101 3.1172370101 3.1172370101 3.1040977935 3.0909585769 3.0909585769 
3.0778193604 3.0778193604 3.0778193604 3.0909585769 3.1040977935 3.1172370101 3.1172370101 3.1172370101 3.1040977935 
3.1040977935 3.0909585769 3.0909585769 3.0778193604 3.0778193604 3.0909585769 3.1040977935 3.1172370101 3.1172370101 
3.1040977935 3.0909585769 3.0909585769 3.0909585769 3.0778193604 3.0778193604 3.0778193604 3.0778193604 3.0909585769 
3.1040977935 3.1040977935 3.1172370101 3.1172370101 3.1172370101 3.1172370101 3.1040977935 3.0909585769 3.0909585769 
3.0778193604 3.0778193604 3.0778193604 3.0909585769 3.0909585769 3.1040977935 3.1172370101 3.1172370101 3.1040977935 
3.0909585769 3.0909585769 3.0778193604 3.0778193604 3.0909585769 3.1040977935 3.1172370101 3.1172370101 3.1172370101 
3.1172370101 3.1040977935 3.0909585769 3.0909585769 3.0778193604 3.0778193604 3.0778193604 3.0909585769 3.1040977935 
3.1172370101 3.1172370101 3.1040977935 3.0909585769 3.0909585769 3.0778193604 3.0778193604 3.0909585769 3.1040977935 
3.1172370101 3.1172370101 3.1172370101 3.1172370101 3.1040977935 3.1040977935 3.0909585769 3.0909585769 3.0909585769 
3.0778193604 3.0778193604 3.0778193604 3.0909585769 3.1040977935 3.1040977935 3.1172370101 3.1172370101 3.1172370101 
3.1040977935 3.0909585769 3.0909585769 3.0778193604 3.0778193604 3.0909585769 3.1040977935 3.1172370101 3.1172370101 
3.1040977935 3.0909585769 3.0909585769 3.0778193604 3.0778193604 3.0778193604 3.0909585769 3.1040977935 3.1172370101 
3.1172370101 3.1172370101 3.1172370101 3.1040977935 3.0909585769 3.0909585769 3.0909585769 3.0778193604 3.0778193604 
3.0778193604 3.0909585769 3.1040977935 3.1172370101 3.1172370101 3.1040977935 3.0909585769 3.0909585769 3.0778193604 
3.0778193604 3.0909585769 3.1040977935 3.1172370101 3.1172370101 3.1040977935 3.1040977935 3.0909585769 3.0909585769 
3.0909585769 3.0778193604 3.0778193604 3.0778193604 3.0909585769 3.1040977935 3.1040977935 3.1172370101 3.1172370101 
3.1172370101 3.1040977935 3.0909585769 3.0909585769 3.0909585769 3.0778193604 3.0778193604 3.0909585769 3.1040977935 
3.1172370101 3.1172370101 3.1040977935 3.0909585769 3.0909585769 3.0778193604 3.0778193604 3.0909585769 3.1040977935 
3.1172370101 3.1172370101 3.1172370101 3.1040977935 3.0909585769 3.0909585769 3.0778193604 3.0778193604 3.0778193604 
3.0909585769 3.1040977935 3.1172370101 3.1172370101 3.1172370101 3.1040977935 3.0909585769 3.0909585769 3.0778193604 
3.0778193604 3.0909585769 3.1040977935 3.1040977935 3.1172370101 3.1172370101 3.1040977935 3.1040977935 3.0909585769 
3.0909585769 3.0778193604 3.0778193604 3.0909585769 3.1040977935 3.1172370101 3.1172370101 3.1040977935 3.0909585769 
3.0909585769 3.0778193604 3.0778193604 3.0909585769 3.0909585769 3.1040977935 3.1172370101 3.1172370101 3.1172370101 
3.1172370101 3.1040977935 3.0909585769 3.0909585769 3.0778193604 3.0778193604 3.0909585769 3.1040977935 3.1172370101 
3.1172370101 3.1040977935 3.0909585769 3.0909585769 3.0778193604 3.0778193604 3.0909585769 3.1040977935 3.1172370101 
3.1303762267 3.1303762267 3.1303762267 3.1303762267 3.1303762267 3.1172370101 3.1040977935 3.0909585769 3.0909585769 
3.0778193604 3.0778193604 3.0909585769 3.1040977935 3.1172370101 3.1172370101 3.1303762267 3.1303762267 3.1303762267 
3.1303762267 3.1303762267 3.1172370101 3.1040977935 3.0909585769 3.0909585769 3.0778193604 3.0778193604 3.0778193604 
3.0909585769 3.1040977935 3.1040977935 3.1172370101 3.1303762267 3.1303762267 3.1303762267 3.1172370101 3.1040977935 
3.1040977935 3.0909585769 3.0909585769 3.0778193604 3.0778193604 3.0909585769 3.1040977935 3.1172370101 3.1303762267 
3.1303762267 3.1303762267 3.1303762267 3.1172370101 3.1172370101 3.1040977935 3.0909585769 3.0909585769 3.0778193604 
3.0778193604 3.0778193604 3.0909585769 3.1040977935 3.1172370101 3.1303762267 3.1303762267 3.1303762267 3.1172370101 
3.1040977935 3.0909585769 3.0909585769 3.0778193604 3.0646801438 3.0646801438 3.0646801438 3.0646801438 3.0646801438 
3.0646801438 3.0646801438 3.0778193604 3.0909585769 3.1040977935 3.1172370101 3.1172370101 3.1303762267 3.1303762267 
3.1303762267 3.1172370101 3.1040977935 3.0909585769 3.0909585769 3.0778193604 3.0646801438 3.0646801438 3.0646801438 
3.0646801438 3.0778193604 3.0909585769 3.1040977935 3.1040977935 3.1172370101 3.1303762267 3.1303762267 3.1303762267 
3.1172370101 3.1040977935 3.0909585769 3.0909585769 3.0778193604 3.0646801438 3.0646801438 3.0646801438 3.0778193604 
3.0909585769 3.1040977935 3.1172370101 3.1303762267 3.1303762267 3.1303762267 3.1172370101 3.1040977935 3.0909585769 
3.0909585769 3.0909585769 3.0778193604 3.0646801438 3.0646801438 3.0646801438 3.0778193604 3.0909585769 3.1040977935 
3.1172370101 3.1172370101 3.1303762267 3.1303762267 3.1172370101 3.1040977935 3.0909585769 3.0909585769 3.0778193604 
3.0646801438 3.0646801438 3.0646801438 3.0778193604 3.0909585769 3.1040977935 3.1172370101 3.1303762267 3.1303762267 
3.1303762267 3.1303762267 3.1172370101 3.1040977935 3.0909585769 3.0909585769 3.0778193604 3.0646801438 3.0646801438 
3.0646801438 3.0778193604 3.0909585769 3.1040977935 3.1172370101 3.1303762267 3.1303762267 3.1172370101 3.1040977935 
3.0909585769 3.0909585769 3.0909585769 3.0778193604 3.0646801438 3.0646801438 3.0646801438 3.0778193604 3.0909585769 
3.1040977935 3.1172370101 3.1172370101 3.1303762267 3.1303762267 3.1303762267 3.1172370101 3.1040977935 3.0909585769 
3.0909585769 3.0778193604 3.0778193604 3.0646801438 3.0646801438 3.0778193604 3.0778193604 3.0909585769 3.1040977935 
3.1172370101 3.1303762267 3.1303762267 3.1172370101 3.1172370101 3.1040977935 3.1040977935 3.0909585769 3.0909585769 
3.0778193604 3.0646801438 3.0646801438 3.0646801438 3.0646801438 3.0778193604 3.0909585769 3.0909585769 3.1040977935 
3.1040977935 3.1172370101 3.1303762267 3.1303762267 3.1303762267 3.1303762267 3.1172370101 3.1040977935 3.0909585769 