# vtk DataFile Version 4.2
vtk output
ASCII
DATASET UNSTRUCTURED_GRID
POINTS 1740 double
2144.07 -94.44003 0 2911 0 0 16.54298 -37.82236 0 
5.09149 -21.30132 0 1.27433 -10.75385 0 0 0 0 
2.54575 15.14293 0 6.36291 23.76126 0 14.00014 34.89063 0 
30.50239 50.70793 0 33.39435 -52.93479 0 2050.91 -103.7862 0 
60.1465 -69.72165 0 88.83633 -83.2817 0 118.7656 -94.71113 0 
153.4168 -105.7022 0 199.5806 -117.771 0 261.4466 -130.7139 0 
345.846 -144.1892 0 460.3522 -157.0592 0 608.4185 -167.1903 0 
783.2313 -172.4016 0 941.0559 -172.4533 0 1063.409 -170.1096 0 
1164.153 -166.8746 0 1263.449 -162.682 0 1375.468 -156.8941 0 
1513.293 -148.414 0 1665.281 -137.5317 0 1791.864 -127.3721 0 
2195.451 -89.09491 0 2273.924 -80.67077 0 2383.731 -68.3513 0 
2517.64 -52.47337 0 2649.227 -35.9232 0 2740.773 -23.82991 0 
2804.387 -15.13419 0 2848.802 -8.916218 0 2881.944 -4.196067 0 
56.61447 67.79801 0 84.09687 81.25172 0 112.4783 92.48395 0 
142.1748 102.3504 0 174.8563 111.6168 0 213.124 120.8806 0 
260.3759 130.5151 0 324.6539 141.1779 0 418.1422 152.9178 0 
535.6656 162.9871 0 690.9154 170.4255 0 902.6513 172.7852 0 
1100.32 169.0517 0 1270.99 162.3262 0 1462.794 151.6837 0 
1631.287 140.0952 0 1747.993 131 0 1922.788 115.9027 0 
2069.56 101.951 0 2128.804 96.0021 0 2297.147 78.11721 0 
2414.379 64.80104 0 2554.023 47.99319 0 2673.693 32.73885 0 
2757.97 21.50315 0 2814.297 13.7575 0 2852.02 8.460961 0 
2882.272 4.148909 0 1791.052 127.4402 0 1366.894 157.3738 0 
1444.38 -152.8302 0 1547.039 146.1296 0 1589.287 -143.1614 0 
1878.731 119.8675 0 1997.072 108.9828 0 1185.654 166.0472 0 
1882.536 -119.5292 0 1971.323 -111.4145 0 1684.777 136.0292 0 
2099.317 -98.9855 0 2234.809 84.9091 0 2181.695 90.53914 0 
1728.573 -132.5703 0 1718.815 133.3509 0 1834.825 123.7132 0 
1960.305 112.4444 0 2033.69 105.4648 0 2099.184 98.99892 0 
2214.291 -70.008442488 396.8421 2955.512 18.574845026 396.8421 158.0786 -22.838221907 396.8421 
147.0109 -6.9957445521 396.8421 143.3217 3.1437459349 396.8421 142.09 13.50057388 396.8421 
144.5505 28.115808675 396.8421 148.2398 36.450826131 396.8421 155.621 47.233681558 396.8421 
171.5701 62.598258461 396.8421 174.3652 -37.284205652 396.8421 2124.254 -78.932010433 396.8421 
200.2206 -53.274065522 396.8421 227.9488 -66.14135341 396.8421 256.8748 -76.948227618 396.8421 
290.3647 -87.302274551 396.8421 334.981 -98.620205756 396.8421 394.7733 -110.68285531 396.8421 
476.3434 -123.12636745 396.8421 587.0114 -134.82751618 396.8421 730.1145 -143.74662326 396.8421 
899.0676 -147.86955036 396.8421 1051.602 -147.20360737 396.8421 1169.853 -144.45589294 396.8421 
1267.221 -140.98022274 396.8421 1363.188 -136.62747696 396.8421 1471.452 -130.74670824 396.8421 
1604.657 -122.27593345 396.8421 1751.55 -111.55712663 396.8421 1873.891 -101.65408986 396.8421 
2263.949 -64.922046883 396.8421 2339.792 -56.928562809 396.8421 2445.918 -45.284749957 396.8421 
2575.338 -30.348384747 396.8421 2702.515 -14.852763821 396.8421 2790.992 -3.570872345 396.8421 
2852.473 4.5225413074 396.8421 2895.4 10.300921665 396.8421 2927.431 14.682738748 396.8421 
196.807 79.256515666 396.8421 223.3682 92.416961709 396.8421 250.7983 103.44006986 396.8421 
279.4994 113.15322553 396.8421 311.0855 122.30554097 396.8421 348.0705 131.48914757 396.8421 
393.7383 141.08418645 396.8421 455.8617 151.77138545 396.8421 546.2162 163.66168111 396.8421 
659.8003 174.0529374 396.8421 809.846 182.0637923 396.8421 1014.485 185.35830362 396.8421 
1205.528 182.56908379 396.8421 1370.477 176.66552113 396.8421 1555.851 166.91563225 396.8421 
1718.696 156.05913812 396.8421 1831.49 147.43282397 396.8421 2000.426 132.96725045 396.8421 
2142.278 119.4720664 396.8421 2199.537 113.68677915 396.8421 2362.236 96.197486015 396.8421 
2475.539 83.093502632 396.8421 2610.501 66.467580542 396.8421 2726.16 51.306104683 396.8421 
2807.613 40.100212682 396.8421 2862.05 32.357893504 396.8421 2898.509 27.056095533 396.8421 
2927.749 22.735467432 396.8421 1873.106 144.0369221 396.8421 1463.165 172.16558495 396.8421 
1538.054 -126.67075945 396.8421 1637.272 161.73486946 396.8421 1678.104 -117.08522921 396.8421 
1957.846 136.78143382 396.8421 2072.22 126.28739423 396.8421 1288 179.97700442 396.8421 
1961.524 -94.061823353 396.8421 2047.334 -86.246452372 396.8421 1770.393 152.21240289 396.8421 
2171.038 -74.343504848 396.8421 2301.989 102.85511059 396.8421 2250.655 108.35933455 396.8421 
1812.721 -106.71036836 396.8421 1803.29 149.6697375 396.8421 1915.411 140.47105241 396.8421 
2036.686 129.63232107 396.8421 2107.61 122.8809552 396.8421 2170.909 116.60336503 396.8421 
2284.511 -52.047279413 793.6842 3000.027 32.10391059 793.6842 299.6143 -11.942957264 793.6842 
288.9304 3.2523042028 793.6842 285.3691 12.994439199 793.6842 284.1801 22.95800042 793.6842 
286.5551 37.039048473 793.6842 290.1167 45.080660771 793.6842 297.2417 55.496597608 793.6842 
312.6379 70.364408349 793.6842 315.336 -25.768041616 793.6842 2197.597 -60.621501665 793.6842 
340.2947 -41.032401139 793.6842 367.0612 -53.282607767 793.6842 394.9839 -63.544780224 793.6842 
427.3123 -73.350552882 793.6842 470.3812 -84.033715576 793.6842 528.0998 -95.36762588 793.6842 
606.8411 -106.97841841 793.6842 713.6708 -117.76635095 793.6842 851.8104 -125.77780131 793.6842 
1014.904 -129.13175233 793.6842 1162.147 -127.99730785 793.6842 1276.298 -125.01145428 793.6842 
1370.288 -121.41308563 793.6842 1462.927 -116.9992861 793.6842 1567.436 -111.11668474 793.6842 
1696.021 -102.73505281 793.6842 1837.82 -92.225333639 793.6842 1955.917 -82.581264149 793.6842 
2332.447 -47.170581194 793.6842 2405.659 -39.520749628 793.6842 2508.105 -28.405765638 793.6842 
2633.037 -14.191025793 793.6842 2755.801 0.51154922956 793.6842 2841.209 11.191328891 793.6842 
2900.561 18.841409128 793.6842 2941.997 24.297980041 793.6842 2972.917 28.432971302 793.6842 
336.9995 86.521306478 793.6842 362.6396 99.315891837 793.6842 389.1182 110.05548675 793.6842 
416.8239 119.53836754 793.6842 447.3145 128.49276985 793.6842 483.0167 137.49928389 793.6842 
527.1009 146.93714289 793.6842 587.0697 157.49239855 793.6842 674.2905 169.31403848 793.6842 
783.9349 179.76674021 793.6842 928.7766 188.03308768 793.6842 1126.317 191.88589219 793.6842 
1310.735 189.75360858 793.6842 1469.963 184.4785434 793.6842 1648.908 175.4693726 793.6842 
1806.105 165.27335611 793.6842 1914.987 157.10189236 793.6842 2078.064 143.30480098 793.6842 
2214.996 130.3529599 793.6842 2270.269 124.78128568 793.6842 2427.326 107.87850644 793.6842 
2536.699 95.163637265 793.6842 2666.98 78.979296989 793.6842 2778.628 64.176743181 793.6842 
2857.255 53.212739712 793.6842 2909.806 45.627101411 793.6842 2945.001 40.428041523 793.6842 
2973.224 36.188556501 793.6842 1955.16 153.87231734 793.6842 1559.437 180.34611609 793.6842 
1631.729 -107.07302012 793.6842 1727.505 170.61874 793.6842 1766.921 -97.634744962 793.6842 
2036.96 146.95231443 793.6842 2147.368 136.90226003 793.6842 1390.347 187.47061864 793.6842 
2040.511 -75.220610085 793.6842 2123.346 -67.668920768 793.6842 1856.009 161.6356732 793.6842 
2242.759 -56.209553608 793.6842 2369.167 114.32261392 793.6842 2319.614 119.64144622 793.6842 
1896.869 -87.49865076 793.6842 1887.765 159.2255788 793.6842 1995.998 150.47458005 793.6842 
2113.066 140.11055966 793.6842 2181.531 133.63082683 793.6842 2242.634 127.59150615 793.6842 
2354.732 -39.566806238 1190.526 3044.539 40.964087795 1190.526 441.15 -4.2717680949 1190.526 
430.8497 10.304190745 1190.526 427.4164 19.659405988 1190.526 426.2701 29.234797069 1190.526 
428.5601 42.779592722 1190.526 431.9934 50.521582489 1190.526 438.8627 60.556881401 1190.526 
453.7057 74.896526016 1190.526 456.3069 -17.514938844 1190.526 2270.94 -47.81951821 1190.526 
480.3688 -32.11364643 1190.526 506.1737 -43.809457433 1190.526 533.0934 -53.591140193 1190.526 
564.26 -62.921705719 1190.526 605.7815 -73.06549468 1190.526 661.4265 -83.795162951 1190.526 
737.3385 -94.737500937 1190.526 840.33 -104.824092 1190.526 973.5064 -112.18315362 1190.526 
1130.74 -115.04107318 1190.526 1272.693 -113.65610767 1190.526 1382.742 -110.581831 1190.526 
1473.356 -106.97085432 1190.526 1562.666 -102.59227761 1190.526 1663.42 -96.801262129 1190.526 
1787.385 -88.601408244 1190.526 1924.09 -78.372580252 1190.526 2037.944 -69.022096072 1190.526 
2400.946 -34.878281878 1190.526 2471.527 -27.53073409 1190.526 2570.292 -16.868784134 1190.526 
2690.735 -3.2542544772 1190.526 2809.091 10.806608356 1190.526 2891.43 21.008997258 1190.526 
2948.647 28.31203054 1190.526 2988.597 33.518694326 1190.526 3018.403 37.463149216 1190.526 
477.1918 90.500986336 1190.526 501.9109 102.87537381 1190.526 527.4382 113.27526072 1190.526 
554.1485 122.4691278 1190.526 583.5435 131.16123412 1190.526 617.963 139.91600751 1190.526 
660.4633 149.10533939 1190.526 718.2775 159.40633697 1190.526 802.3645 170.98606065 1190.526 
908.0698 181.29091041 1190.526 1047.707 189.55284417 1190.526 1238.151 193.64465632 1190.526 
1415.942 191.91279587 1190.526 1569.449 187.08093865 1190.526 1741.965 178.64871053 1190.526 
1893.514 169.01119122 1190.526 1998.484 161.24857561 1190.526 2155.702 148.09112131 1190.526 
2287.714 135.69750143 1190.526 2341.001 130.35603538 1190.526 2492.415 114.12150386 1190.526 
2597.858 101.88402099 1190.526 2723.46 86.281285027 1190.526 2831.095 71.988990689 1190.526 
2906.899 61.391335143 1190.526 2957.56 54.054041885 1190.526 2991.49 49.02291927 1190.526 
3018.699 44.919087854 1190.526 2037.214 158.17377272 1190.526 1655.708 183.228067 1190.526 
1725.403 -92.839336775 1190.526 1817.738 174.07211021 1190.526 1855.738 -83.631453048 1190.526 
2116.075 151.5746666 1190.526 2222.516 141.96885012 1190.526 1492.694 189.84188212 1190.526 
2119.498 -61.903115358 1190.526 2199.357 -54.612624539 1190.526 1941.625 165.55879906 1190.526 
2314.479 -43.571443623 1190.526 2436.346 120.31578229 1190.526 2388.573 125.42396192 1190.526 
1981.017 -73.786070156 1190.526 1972.24 163.2684809 1190.526 2076.584 154.93523416 1190.526 
[...]
POINT_DATA 1740
FIELD FieldData 1
Pressure 1 1740 double
3.1108154877 3.0281042096 3.0098758125 2.9870548912 2.9766090106 2.9530434355 2.9686430613 2.9862879776 3.0180005261 
3.0304887827 3.0128254182 3.1131407713 3.0376379048 3.0521562762 3.0694498142 3.0671398607 3.0846389718 3.0897377277 
3.1117552445 3.1169162253 3.1348312307 3.1436334425 3.1465961119 3.154310277 3.1513611388 3.1467247886 3.1435552497 
3.1349115589 3.1252888071 3.1192073427 3.1088936096 3.1053687854 3.1012730891 3.0947579753 3.0850612608 3.0759383033 
3.066089705 3.0581405385 3.0485172094 3.0660225289 3.0781783029 3.0918436897 3.1041968062 3.1071944258 3.1191733537 
3.1251619055 3.1333790632 3.1485223373 3.1599291307 3.1767357117 3.1869931593 3.1934619378 3.1999944153 3.2067410396 
3.2019474346 3.1999090191 3.1641697939 3.1608682702 3.1652915807 3.0956620697 3.0855095252 3.0746672963 3.0631881962 
3.0530093098 3.0417897793 3.0348184031 3.0358074329 3.1856141968 3.2047848723 3.1405092468 3.2040320901 3.1303811722 
3.1736689136 3.1583069236 3.1990738214 3.1167713301 3.1150601689 3.2006755376 3.1119704313 3.1001277839 3.143865148 
3.1214752866 3.2009249116 3.1768947392 3.1612831888 3.1577244738 3.163151589 3.1086503679 3.025886818 3.0275795794 
2.9995166205 3.0054283533 2.9845943899 2.9948290863 3.0071928375 3.034405935 3.0526912755 3.0393513112 3.1106461184 
3.0583483922 3.0714594154 3.0851155161 3.0891527236 3.1039369611 3.1153069058 3.1273415738 3.1345465933 3.1434287089 
3.1487003822 3.1527204608 3.1570399978 3.1536004335 3.1480231082 3.1414678421 3.1291862622 3.1205002001 3.1158383381 
3.1065448522 3.1026388228 3.0980709663 3.0909380214 3.0813567669 3.0721299858 3.0625099456 3.0552206711 3.0396207053 
3.0847877051 3.1047330382 3.1163186866 3.1260737932 3.1337678157 3.1399639221 3.1444570645 3.1532562148 3.1651228456 
3.1746006169 3.1825511197 3.19071814 3.1961121146 3.2038551734 3.2070028679 3.1965384225 3.1880790164 3.156460015 
3.1586177235 3.1586881002 3.0799459966 3.074366525 3.0669374965 3.0557905919 3.0459694009 3.0359549432 3.0314622181 
3.0312354666 3.1705198179 3.2063048008 3.1371490522 3.1999130384 3.1243404869 3.1629115912 3.1540782805 3.2005658787 
3.1134053991 3.1122618533 3.1952140171 3.1095092307 3.0771955836 3.1207654652 3.1180115917 3.1940733927 3.1649825759 
3.1567617992 3.1559699403 3.1623175477 3.1075840839 3.021774081 3.0295108036 3.0019819437 3.0028638737 2.9835927281 
2.99704169 3.0096912424 3.0379884749 3.0594609922 3.0485209522 3.1100182977 3.0628332197 3.082133468 3.0994029177 
3.1073679068 3.118579379 3.1286555756 3.1399512033 3.147707365 3.1546828545 3.1578478708 3.1587093744 3.1604395464 
3.1545996612 3.146382847 3.137609237 3.1243078688 3.1176046985 3.1144343528 3.1051097621 3.1010093378 3.0955280606 
3.0889407005 3.0785450512 3.0690804666 3.0599362209 3.0530004119 3.041576901 3.0902306464 3.112643642 3.1303992028 
3.139625468 3.1538172019 3.1598542366 3.168760331 3.1732804338 3.1812533097 3.190397085 3.1947467945 3.2010697909 
3.2037378638 3.211576332 3.2121401986 3.1978568461 3.1843491217 3.1529015363 3.1565932412 3.1385960936 3.0717291672 
3.0666112131 3.0604706674 3.0500358079 3.0400693667 3.0307265731 3.0262874239 3.0254147216 3.1642478301 3.2130256165 
3.1319570892 3.2025733926 3.1195472605 3.1582887496 3.1526730001 3.2075589446 3.1120006464 3.1113952723 3.1956126062 
3.1089763892 3.0683927879 3.0809955973 3.1161496597 3.1930239421 3.1592688322 3.1533084162 3.1539868901 3.1600973575 
3.1071464854 3.019794217 3.0300263205 3.0019427501 3.0030992758 2.9824437255 2.9925256216 3.0059522974 3.0381733123 
3.0596928607 3.0484485697 3.1097227748 3.0687290459 3.0864561679 3.1047590254 3.1147577808 3.1259050335 3.1350672652 
3.1480564067 3.1560595238 3.161718205 3.1632506443 3.1646764571 3.1632619665 3.154691823 3.1438703362 3.132499616 
3.121147088 3.1161007554 3.114052945 3.1047474318 3.1000530996 3.0954446372 3.0887819209 3.0781198433 3.0681571002 
3.0593685957 3.0524641812 3.0419234645 3.0935405858 3.117012204 3.1329222513 3.1444035524 3.1522279171 3.1630320907 
3.1760613356 3.1836721516 3.1915096895 3.201821218 3.2067799837 3.2125416563 3.2133201983 3.2200618029 3.2200051737 
3.2023528529 3.1872126834 3.1522720989 3.1552697052 3.0998656514 3.0695856417 3.0633606824 3.0557927554 3.0455013036 
3.0356794678 3.0265058902 3.021829165 3.0205639661 3.1650115548 3.2218056891 3.1269262421 3.2076411216 3.1168508796 
3.1567012616 3.1517434295 3.2165736087 3.1120625889 3.1111812798 3.1995491962 3.108222806 3.0697830689 3.0712110424 
3.1151570493 3.1961061019 3.1587929684 3.1526021173 3.1527816497 3.1551078498 3.1066498643 3.0185806921 3.0312516375 
3.0017088595 3.0056290453 2.9853016053 2.9938226828 3.0066011752 3.0398199659 3.0605525339 3.0489009937 3.1094123083 
3.0703783627 3.0883730269 3.1046963533 3.11592313 3.1276557494 3.1388877336 3.1499549329 3.1594836531 3.1657871634 
3.1669226547 3.167165841 3.1638953644 3.152807936 3.1396671924 3.1270861134 3.118957114 3.1153008524 3.1140181833 
3.1042634025 3.0998075803 3.0955963442 3.0889599813 3.078670431 3.068652037 3.0599978822 3.05288465 3.0430236257 
3.0949018999 3.1183988978 3.1335488433 3.1456870674 3.1551050442 3.1659696112 3.1772062999 3.1856811732 3.1956938947 
3.2073993269 3.2159025981 3.2213468281 3.2223840953 3.2276690935 3.2284963928 3.2059607799 3.1894498922 3.1517931477 
3.1539263302 3.0726938548 3.0674892383 3.0626082857 3.0538298305 3.0431165871 3.0328700908 3.0235323194 3.018784587 
3.016919496 3.1658302206 3.2299092621 3.1222911196 3.2139749035 3.1155456006 3.1557871408 3.1511966704 3.2249695347 
3.1126317306 3.11089987 3.2016907703 3.1077162291 3.0699046018 3.0681405674 3.1145349215 3.1982875249 3.1577936954 
3.1527322897 3.1515323558 3.1388924984 3.1060074115 3.0183168002 3.0317405941 3.0020888627 3.0066431717 2.985901112 
2.9945971446 3.0078081865 3.0406027124 3.0621080281 3.0492155138 3.1091303524 3.0707722905 3.0895556057 3.1049182383 
3.1168772352 3.1285591047 3.140773532 3.1520003098 3.1617481901 3.169051302 3.1699836106 3.1691837423 3.163340235 
3.1492729399 3.1348481933 3.1223701085 3.1182231229 3.115659942 3.1142192699 3.10380243 3.0996425849 3.0958333294 
3.0893191719 3.0792002794 3.0691831839 3.0606405688 3.0534531213 3.0438637765 3.0963948932 3.1200210087 3.1351769158 
3.1474459449 3.1564960357 3.1680167463 3.1794369384 3.1888031003 3.2001002507 3.2115398047 3.2227007267 3.2284956831 
3.2307999427 3.2355460131 3.2381395478 3.2121536185 3.1923732745 3.1491243993 3.14820372 3.0638026476 3.0674888259 
3.0615408451 3.0525595248 3.0421734334 3.0319152458 3.0221034415 3.0173310795 3.0149539772 3.1659849499 3.2380463507 
3.1189801476 3.2228412849 3.1151532111 3.1533647269 3.1491477572 3.2332185644 3.11293528 3.1105346847 3.2055389333 
3.10731443 3.0707422669 3.0688057816 3.1146238255 3.2016946952 3.155637064 3.1505928318 3.1492021549 3.0948908452 
3.1057413273 3.0184947316 3.0316763917 3.0020093603 3.0065239591 2.985946895 2.9942581486 3.0079963057 3.0411783553 
3.0627770096 3.0487748452 3.1090973355 3.070578655 3.0895165771 3.1046851872 3.1172011995 3.1288793164 3.1417081854 
3.1533302917 3.1631065533 3.1713545634 3.17205375 3.1707683419 3.16196364 3.1457411599 3.1304189093 3.1190326135 
3.1176876248 3.1166448675 3.1146394965 3.1037427124 3.0996070627 3.0959842406 3.0897611833 3.0797152976 3.0697832791 
3.0612061256 3.054068939 3.0441171436 3.0974476474 3.1211549027 3.1366576773 3.1491412405 3.1585430975 3.1700106145 
3.1814762357 3.1911045023 3.2033079935 3.2151780197 3.2271471488 3.234946978 3.2381253456 3.2424715567 3.247593176 
3.2221407895 3.1982537666 3.1450500275 3.1289432654 3.0594892135 3.0653459084 3.0589788118 3.0506001228 3.0409482858 
3.0312741708 3.0212028943 3.0167812273 3.0140518757 3.1676892716 3.2462922866 3.1171248567 3.2345887957 3.1164228813 
3.149577758 3.1454800212 3.2407509396 3.1127773652 3.1102590335 3.2131112435 3.1071175951 3.0695501761 3.0679666115 
3.115558063 3.208288748 3.1540142784 3.1465235996 3.1462669571 3.0574249809 3.1056834095 3.0184562151 3.0320023546 
3.0021990159 3.0074809011 2.9868774746 2.9945949632 3.0083260218 3.0419698076 3.0636411096 3.0484647509 3.1090957993 
3.0702301248 3.0892958423 3.1045351955 3.1173407801 3.1290241502 3.142116836 3.153945617 3.1648035066 3.1721635365 
3.1730268479 3.1712092705 3.15964638 3.142003052 3.1272082476 3.1170589847 3.118338205 3.117580975 3.11531418 
3.1037951109 3.0998224153 3.0961524458 3.0901439702 3.0801315307 3.0702525419 3.061621753 3.0545689575 3.0440475869 
3.0986552387 3.1226212539 3.1382826727 3.1510073125 3.1604976216 3.1719954722 3.1836371304 3.1936232191 3.2063807615 
3.2186551469 3.2307735092 3.2399386082 3.2444426632 3.2494409768 3.2564928617 3.2362847421 3.2095079671 3.1394139244 
3.0898724544 3.0549563362 3.0612792123 3.0541906362 3.0481217018 3.0391107104 3.0300038336 3.0200855732 3.0161294951 
3.0132354159 3.1722982587 3.2533070054 3.1164672331 3.2520366934 3.1182698048 3.1447510516 3.1409804929 3.2470027955 
3.1127598233 3.1100786952 3.2262427834 3.1071741434 3.0660074114 3.0608912425 3.1161328786 3.2204772747 3.1530124145 
3.1411178997 3.1425314431 3.0470045031 3.1058356294 3.0178789582 3.0324891003 3.0024174208 3.0083781478 2.9878412013 
2.9953056732 3.0090044056 3.0428345184 3.0647472235 3.0479671914 3.1092738599 3.0697279843 3.0888685302 3.1043679316 
3.1173254768 3.1288539561 3.1422472762 3.1540993976 3.1655308515 3.172903653 3.1738634285 3.1712082817 3.1571849234 
3.1384365572 3.1249779746 3.116496896 3.1186644004 3.1182606079 3.1159281283 3.1039659778 3.1000849052 3.0964025376 
3.0904609186 3.0804089186 3.0705389275 3.0618050264 3.0548249651 3.0437396438 3.1001174877 3.1243052415 3.1401917176 
3.1530952039 3.1628570227 3.1743733826 3.1861917991 3.1963867833 3.2096582981 3.222284743 3.2343589307 3.2443855411 
3.2498262264 3.2546141841 3.2614578281 3.2545871555 3.2304559853 3.1326383168 3.0542294668 3.0506112392 3.0561353254 
3.0510257744 3.045997779 3.0369691217 3.0280732858 3.0183330946 3.0148196118 3.0118160822 3.1839292123 3.2580755043 
3.1169100902 3.2670287906 3.1184023098 3.1400681358 3.1360335623 3.2524332469 3.1128924856 3.1100915812 3.2476228532 
3.1074047536 3.0601863857 3.0547916509 3.1168674582 3.2417751003 3.1551562311 3.1348472765 3.1362319076 3.0517499308 
3.1062510502 3.016695372 3.0328551861 3.0026148179 3.0093140408 2.9885882989 2.9959588723 3.0096292614 3.0435859013 
3.0657210518 3.0473882698 3.1097079476 3.0690344955 3.0880801637 3.1038565392 3.1167373358 3.1283417333 3.1418480625 
3.154024756 3.1658073476 3.17334275 3.1743549912 3.1710699219 3.1548817723 3.1359343066 3.1242196243 3.1170567872 
3.1195565876 3.1192233669 3.1164895951 3.1042973885 3.1005002484 3.0967427984 3.0908416977 3.0806688703 3.0707945049 
3.0618960652 3.0549536702 3.043604622 3.1015476478 3.12594771 3.1419168003 3.1550911201 3.1651011108 3.1767537251 
3.1889256754 3.1993532954 3.2131295277 3.2259405498 3.238045597 3.2484743806 3.2543399578 3.2602851756 3.2670716879 
3.2739958193 3.2650437789 3.1247893015 3.0383402643 3.0482473466 3.0518670865 3.0481741259 3.0426872766 3.0338966805 
3.0252862077 3.0156874395 3.0125912907 3.0095770254 3.2081818956 3.2612782249 3.1177712678 3.2744295154 3.1196921624 
3.1362537565 3.1299519133 3.2572178001 3.1133580935 3.1103065259 3.2746831256 3.1078888522 3.0533674111 3.0525152044 
3.1176777669 3.271260223 3.1675711225 3.1270546534 3.121666474 3.0452798603 3.1068299758 3.0150402516 3.0331080441 
3.0027329119 3.0101509523 2.9891456097 2.9965469798 3.010162648 3.0441261442 3.066448248 3.0463985007 3.1103216078 
3.0680061514 3.0871136107 3.1024375084 3.1151329454 3.1271652653 3.1408136174 3.1535690452 3.1655093166 3.1729705977 
3.1741532021 3.1704624675 3.152811621 3.1345399701 3.1242864204 3.1177640618 3.1199824431 3.12022224 3.1171055147 
3.1048512735 3.10108866 3.0972764165 3.0913218887 3.0810398712 3.0710500999 3.0620031839 3.0550656928 3.0437258209 
3.1028453162 3.1274537532 3.1434555892 3.1569539587 3.16700595 3.1789713851 3.1914849583 3.2022129681 3.2165180319 
3.229465707 3.24182613 3.2521424035 3.2580146334 3.2648354273 3.2691518024 3.2807612496 3.3091419455 3.1172873801 
3.0456091878 3.0400791866 3.0454142013 3.0426927603 3.0374978817 3.0294321644 3.0213644108 3.0120863392 3.0094413534 
3.0064010167 3.247300111 3.2675208222 3.1183032146 3.2778443917 3.1207869257 3.1372978173 3.1229286713 3.2614735469 
3.1140220679 3.1108014446 3.2890590295 3.1085088134 3.0472466087 3.0494841818 3.1183683178 3.3017155781 3.1999830141 
3.11860301 3.0843879303 3.0545118864 3.1074569445 3.0130976154 3.0332903905 3.0028721166 3.0103728728 2.9896259633 
2.9972190855 3.0107529796 3.044586589 3.0671158636 3.0453221616 3.110987081 3.0668980469 3.0860955476 3.1008665099 
3.1133698133 3.1257426986 3.139485998 3.1527971989 3.1649023929 3.1723766481 3.1737660839 3.1695289439 3.1511712063 
3.1334292419 3.1243113595 3.1182024224 3.1207229483 3.1211178514 3.1176180241 3.1053368635 3.1015342547 3.0977453205 
3.0916886855 3.0813817291 3.0712715027 3.0621268032 3.0550939059 3.0440442646 3.1041461278 3.1289431106 3.1449689848 
3.1588736606 3.1688067821 3.1811504655 3.1939183759 3.2048986111 3.2197733219 3.2328723207 3.24519029 3.2557410278 
3.2617656113 3.270199872 3.2731996195 3.281705313 3.3333395969 3.1165880852 3.0451012839 3.038373903 3.0384581636 
3.0368664814 3.031839721 3.0244062992 3.016784495 3.0079635813 3.0056905423 3.0024670961 3.3089073031 3.269685566 
3.1187636844 3.2779721365 3.1216147792 3.1553858851 3.1140736661 3.2654215267 3.1146447643 3.1113497209 3.2998635177 
3.1091545572 3.0414890747 3.0404788834 3.1187589454 3.3082736205 3.2604694041 3.111443715 3.0496591596 3.0540848837 
3.1079675055 3.010918314 3.0333811978 3.0029833859 3.0104047085 2.9900027536 2.9980356647 3.0115513406 3.0451179016 
3.0678873667 3.0442715977 3.1115822295 3.0658888436 3.0850988885 3.0995767265 3.1119752591 3.1245650445 3.1383272423 
3.1521424116 3.1642257243 3.17180068 3.1735350006 3.1688176557 3.1505913611 3.13289214 3.1246856942 3.1185528566 
3.1214002178 3.1214589175 3.1180447687 3.1056193585 3.1017623165 3.0979960969 3.0917811584 3.0814909794 3.0712512367 
3.0621114158 3.0548697755 3.0444854366 3.1055251449 3.130543857 3.1465688132 3.1609187722 3.1707183535 3.1833953754 
3.19638215 3.2074732835 3.2228463362 3.2360103656 3.2487189065 3.2585254359 3.2650062447 3.2729816038 3.2763570236 
3.2762768043 3.3246582093 3.1313637927 3.0383122623 3.0312612931 3.0339082624 3.0317128681 3.026475593 3.0195040779 
3.0122011955 3.0037704707 3.0019467016 2.99817201 3.3573610395 3.2746869649 3.1191529829 3.2740052605 3.1222514245 
3.2105870132 3.1013376399 3.269087615 3.1151437657 3.1118319549 3.2878167879 3.1097242009 3.0368410496 3.0326897474 
3.1189863952 3.3113800559 3.3341479646 3.1048931606 3.0186213877 3.0447512481 3.1084027138 3.0086079879 3.0334081608 
3.0032535181 3.010682115 2.9903041665 2.9989651544 3.0123784028 3.0456842049 3.0687337678 3.0433075761 3.1120018882 
3.0652936089 3.0843085584 3.0988380153 3.1112162326 3.123886965 3.1374493356 3.1518236442 3.1638331695 3.171479438 
3.1735609074 3.168693127 3.1509643764 3.1338250036 3.1254113093 3.1184441078 3.1215670619 3.1220427836 3.1185016616 
3.1058303244 3.1018429125 3.0980282782 3.0916187463 3.0813418998 3.0709584839 3.0618706768 3.0543730313 3.0447887496 
3.1069538825 3.1322173925 3.1481854439 3.1629365234 3.1726538008 3.1855708437 3.1988240564 3.2099117279 3.2255758448 
3.2388559689 3.2515090344 3.2615717566 3.2678299719 3.2766002742 3.2805598218 3.2800030021 3.3246994545 3.1696910308 
3.0364865315 3.0207949715 3.0279958989 3.0265131336 3.0212867914 3.0147268128 3.0077089535 2.9994321271 2.9984215179 
2.9932632649 3.366729987 3.2782660874 3.1191556478 3.2774677721 3.1226247085 3.3228641443 3.0791232606 3.2719687335 
3.1155191791 3.1121793144 3.2822383049 3.1100912611 3.0275675874 3.0233581767 3.1192055183 3.3011754833 3.4168150589 
3.0944038116 2.9835830984 3.0373202643 3.1087811743 3.0064581496 3.033545467 3.0039156383 3.011388119 2.9906364095 
2.9999927228 3.013207681 3.0466794356 3.0696630149 3.0428486031 3.1122519184 3.0650149072 3.0837501822 3.0987329316 
3.1111065608 3.1236498548 3.1368853458 3.1518274174 3.1634534505 3.1714746542 3.1737502243 3.1691128913 3.1524749805 
3.1339216195 3.1257220539 3.1179412346 3.1212203795 3.1227475737 3.1191500368 3.1060097703 3.1018137753 3.0979752828 
3.0912640151 3.0809562917 3.0703187377 3.0613777979 3.0536410455 3.0447448158 3.1080969262 3.1336825505 3.1495011473 
3.1644745917 3.1741906898 3.1873896952 3.2009033471 3.2119984017 3.2273977534 3.2410930863 3.2533878294 3.2636675278 
3.2703039521 3.2795249922 3.2828060112 3.2820390677 3.3411494787 3.2074705707 3.0229097585 3.0119600146 3.0220237301 
3.0209811756 3.0158465942 3.0099338788 3.003258631 2.9953460613 2.9949423055 2.9883087579 3.3845996747 3.2822425474 
3.118740944 3.2814090627 3.12273697 3.4755601507 3.0404429075 3.2741553505 3.1158223654 3.1125114264 3.2841816239 
3.1103386613 3.0204188302 3.0168349189 3.1197389913 3.3063213349 3.4960835775 3.0713900362 2.9823534646 3.0089567558 
3.1089511015 3.0051747378 3.0323202577 3.0037014887 3.011842992 2.9902249062 3.0005239005 3.0136929809 3.0462874803 
3.0700514835 3.0419603761 3.1123114739 3.06409757 3.082535907 3.0988410372 3.11113828 3.1237080369 3.1360393899 
3.1516592755 3.1624925978 3.1717800454 3.1746799145 3.1706292365 3.1552399633 3.1348211351 3.1258623072 3.117572034 
3.1210652435 3.1233377716 3.1197623645 3.106059809 3.1018093395 3.0978118838 3.0905782772 3.0802396896 3.0693601432 
3.0605255551 3.0526451094 3.0442255687 3.1085967489 3.134396812 3.1503471813 3.1654329792 3.1751390904 3.1885370287 
3.2022204624 3.2132368283 3.2284660292 3.2428443342 3.2553113523 3.265448746 3.2726797265 3.2828766205 3.2858384396 
3.2836451775 3.3510328913 3.1773953088 3.0123849832 3.0102249317 3.018147196 3.0166441906 3.0129381016 3.0072117942 
3.0005035799 2.9930163527 2.9925414977 2.9853668446 3.380384163 3.2853876731 3.1182832887 3.2847392396 3.1231014618 
3.5906267769 2.9926467804 3.2764815261 3.1159451852 3.1127794514 3.2896154798 3.1106662331 3.017366522 3.0174940058 
3.120557814 3.3201342652 3.533386068 3.0452843668 3.0082206426 3.006393847 3.1085518414 3.0056950403 3.0303728787 
3.0018609488 3.0084985743 2.9880687849 2.9996412922 3.0133626677 3.0475087443 3.0704025382 3.0404727235 3.1119293991 
3.063578359 3.0817417144 3.0986739068 3.1099899845 3.1232645337 3.1344893317 3.1527756477 3.163675711 3.173940478 
3.1788321332 3.1742390087 3.1590807867 3.1359940106 3.1262057934 3.1184480473 3.1216000584 3.1238427379 3.1190000099 
3.1063569979 3.1016818641 3.097340044 3.0897245807 3.0793108662 3.0681589468 3.0593175107 3.0513843703 3.0422833785 
3.1091394744 3.134528903 3.1514076504 3.1667927184 3.1764297618 3.1895451622 3.203410405 3.2149821563 3.2305212045 
3.2457225538 3.2587241682 3.2701961129 3.276137834 3.2867355179 3.2859816157 3.2905409719 3.3551263146 3.0990000491 
2.9990789807 3.0190558219 3.0220625835 3.0216656611 3.0172270406 3.0097136723 3.0022521734 2.994768028 2.9936050199 
2.9861352599 3.3968973925 3.2881850307 3.1188397876 3.2900879176 3.1229113107 3.4023343385 2.9823186826 3.2799948478 
3.1155848249 3.1125001413 3.2944033277 3.1104299073 3.0199944796 3.0206738229 3.1206585397 3.3180518102 3.4039911016 
3.0266858898 3.0185048537 3.0235468473 3.1085057607 3.0101607799 3.0321656743 3.0049000529 3.0104886082 2.9902366929 
3.0040436992 3.01710871 3.0546131597 3.0735411592 3.0439376561 3.1143419826 3.0609147184 3.0826992329 3.0992504418 
3.1122990066 3.1263933192 3.1375901125 3.1583352019 3.1751439883 3.1818937927 3.1859285698 3.178947964 3.1588275543 
3.1350005474 3.126076689 3.1201746556 3.1237334457 3.1235446424 3.1184162113 3.1057110201 3.1015385103 3.0964556922 
3.0870158853 3.0778060728 3.0655100296 3.0571827786 3.0486263393 3.0394893612 3.1089837711 3.1362623309 3.1562385973 
3.1715759759 3.180200216 3.1977108814 3.2083794963 3.2176627556 3.2367023295 3.2503852666 3.2655789822 3.2734599804 