# vtk DataFile Version 4.2
vtk output
ASCII
DATASET POLYDATA
POINTS 6532 float
2533.06 -2587.11 5800 2551.89 -2591.8 5800 2580.89 -2594.68 5800 
2609.89 -2587.77 5800 2610.56 -2587.11 5800 2506.99 -2574.11 5800 
2522.89 -2585.21 5800 2623.72 -2574.11 5800 2487.52 -2561.11 5800 
2493.89 -2565.47 5800 2636.87 -2561.11 5800 2468.53 -2548.11 5800 
2638.89 -2559.11 5800 2650.03 -2548.1 5800 2449.54 -2535.11 5800 
2464.89 -2545.62 5800 2663.19 -2535.1 5800 2430.55 -2522.11 5800 
2435.89 -2525.77 5800 2667.9 -2530.45 5800 2676.35 -2522.1 5800 
2411.56 -2509.11 5800 2689.51 -2509.1 5800 2392.56 -2496.11 5800 
2406.89 -2505.92 5800 2696.9 -2501.79 5800 2702.66 -2496.1 5800 
2373.57 -2483.11 5800 2377.89 -2486.07 5800 2715.82 -2483.1 5800 
2354.58 -2470.11 5800 2725.9 -2473.14 5800 2728.98 -2470.1 5800 
2335.59 -2457.11 5800 2348.89 -2466.22 5800 2742.51 -2457.09 5800 
2315.57 -2444.11 5800 2319.89 -2446.56 5800 2754.91 -2446.09 5800 
2757.3 -2444.09 5800 2291.63 -2431.11 5800 2772.87 -2431.09 5800 
2267.69 -2418.11 5800 2290.89 -2430.71 5800 2783.91 -2421.87 5800 
2788.44 -2418.09 5800 2243.75 -2405.11 5800 2261.89 -2414.96 5800 
2804.01 -2405.09 5800 2219.81 -2392.11 5800 2232.89 -2399.21 5800 
2812.91 -2397.66 5800 2819.59 -2392.09 5800 2195.88 -2379.11 5800 
2203.89 -2383.46 5800 2835.16 -2379.09 5800 2175.56 -2366.11 5800 
2841.92 -2373.45 5800 2850.73 -2366.08 5800 2156.8 -2353.11 5800 
2174.89 -2365.64 5800 2866.31 -2353.08 5800 2139.08 -2340.11 5800 
2145.89 -2345.55 5800 2870.92 -2349.23 5800 2881.88 -2340.08 5800 
2131.68 -2327.11 5800 2897.45 -2327.08 5800 2128.38 -2314.1 5800 
2899.92 -2325.02 5800 2913.02 -2314.08 5800 2126.52 -2301.1 5800 
2928.6 -2301.08 5800 2126.02 -2288.1 5800 2928.92 -2300.8 5800 
2943.08 -2288.07 5800 2126.58 -2275.1 5800 2957.93 -2275.28 5800 
2958.14 -2275.07 5800 2127.15 -2262.1 5800 2971.78 -2262.07 5800 
2127.71 -2249.1 5800 2985.41 -2249.07 5800 2128.28 -2236.1 5800 
2986.93 -2247.62 5800 2999.05 -2236.07 5800 2128.84 -2223.1 5800 
3012.68 -2223.07 5800 2129.4 -2210.1 5800 3015.93 -2219.97 5800 
3026.31 -2210.07 5800 2129.97 -2197.1 5800 3039.95 -2197.06 5800 
2130.53 -2184.09 5800 3044.94 -2192.31 5800 3053.58 -2184.06 5800 
2131.1 -2171.09 5800 3067.43 -2171.06 5800 2131.66 -2158.09 5800 
3070.28 -2158.06 5800 2132.22 -2145.09 5800 3071.81 -2145.06 5800 
2132.79 -2132.09 5800 3072.51 -2132.06 5800 2133.35 -2119.09 5800 
3073.18 -2119.06 5800 2133.92 -2106.09 5800 3073.86 -2106.06 5800 
2134.48 -2093.09 5800 3073.94 -2104.33 5800 3074.53 -2093.05 5800 
2135.04 -2080.09 5800 3075.2 -2080.05 5800 2135.61 -2067.09 5800 
3075.87 -2067.05 5800 2136.17 -2054.08 5800 3076.54 -2054.05 5800 
2135.76 -2041.08 5800 3077.06 -2041.05 5800 2133.43 -2028.08 5800 
3077.28 -2028.05 5800 2131.11 -2015.08 5800 3077.47 -2015.05 5800 
2128.79 -2002.08 5800 3077.64 -2002.05 5800 2126.47 -1989.08 5800 
3077.8 -1989.05 5800 2124.15 -1976.08 5800 3077.97 -1976.05 5800 
2121.83 -1963.08 5800 3078.14 -1963.04 5800 2119.51 -1950.08 5800 
3078.31 -1950.04 5800 2117.19 -1937.08 5800 3078.47 -1937.04 5800 
2114.87 -1924.08 5800 2116.92 -1935.6 5800 3078.64 -1924.04 5800 
2112.55 -1911.07 5800 3078.81 -1911.04 5800 2110.22 -1898.07 5800 
3078.98 -1898.04 5800 2107.9 -1885.07 5800 3079.14 -1885.04 5800 
2105.58 -1872.07 5800 3079.31 -1872.04 5800 2103.26 -1859.07 5800 
3079.48 -1859.04 5800 2100.94 -1846.07 5800 3079.65 -1846.04 5800 
2098.62 -1833.07 5800 3079.82 -1833.03 5800 2096.3 -1820.07 5800 
3079.98 -1820.03 5800 2093.98 -1807.07 5800 3080.15 -1807.03 5800 
2091.66 -1794.07 5800 3080.32 -1794.03 5800 2089.34 -1781.06 5800 
3080.49 -1781.03 5800 2087.01 -1768.06 5800 2087.94 -1773.23 5800 
3080.65 -1768.03 5800 2084.69 -1755.06 5800 3080.82 -1755.03 5800 
2082.37 -1742.06 5800 3080.99 -1742.03 5800 2080.05 -1729.06 5800 
3081.16 -1729.03 5800 2077.72 -1716.06 5800 3081.32 -1716.03 5800 
2075.19 -1703.06 5800 3081.49 -1703.02 5800 2072.63 -1690.06 5800 
3090.92 -1690.02 5800 2070.08 -1677.06 5800 3097.07 -1677.02 5800 
2067.53 -1664.06 5800 3102.98 -1669.71 5800 3108.19 -1664.02 5800 
2064.97 -1651.06 5800 3118.09 -1651.02 5800 2062.42 -1638.05 5800 
3128.59 -1638.02 5800 2059.87 -1625.05 5800 3131.98 -1633.83 5800 
3139.1 -1625.02 5800 2057.93 -1612.05 5800 2058.95 -1620.37 5800 
3149.61 -1612.02 5800 2056.82 -1599.05 5800 3160.11 -1599.01 5800 
2058.95 -1591.88 5800 2061.47 -1586.05 5800 3160.99 -1597.94 5800 
3170.62 -1586.01 5800 2065.68 -1573.05 5800 3181.13 -1573.01 5800 
2068.88 -1560.05 5800 3189.99 -1562.05 5800 3191.64 -1560.01 5800 
2072.99 -1547.05 5800 3202.14 -1547.01 5800 2077.09 -1534.05 5800 
3210.54 -1534.01 5800 2081.2 -1521.05 5800 3216.16 -1521.01 5800 
2085.31 -1508.04 5800 3218.99 -1514.26 5800 3221.43 -1508 5800 
2087.96 -1495.49 5800 2088.05 -1495.04 5800 3225.49 -1495 5800 
2089.4 -1482.04 5800 3228.58 -1482 5800 2090.75 -1469.04 5800 
3231.02 -1469 5800 2092.1 -1456.04 5800 3232.99 -1456 5800 
2093.03 -1443.04 5800 3234.12 -1443 5800 2093.62 -1430.04 5800 
3234.44 -1430 5800 2094.09 -1417.04 5800 3234.76 -1417 5800 
2094.49 -1404.04 5800 3235.08 -1404 5800 2094.82 -1391.03 5800 
3235.4 -1391 5800 2095.1 -1378.03 5800 3235.72 -1377.99 5800 
2095.35 -1365.03 5800 3236.04 -1364.99 5800 2095.56 -1352.03 5800 
3236.36 -1351.99 5800 2095.75 -1339.03 5800 3236.68 -1338.99 5800 
2094.74 -1326.03 5800 3237 -1325.99 5800 2093.75 -1313.03 5800 
3237.32 -1312.99 5800 2092.77 -1300.03 5800 3237.64 -1299.99 5800 
2091.81 -1287.03 5800 3237.96 -1286.99 5800 2090.85 -1274.03 5800 
3238.31 -1273.99 5800 2089.91 -1261.02 5800 3238.7 -1260.99 5800 
2088.97 -1248.02 5800 3239.08 -1247.98 5800 2088.03 -1235.02 5800 
3239.45 -1234.98 5800 2087.09 -1222.02 5800 2087.98 -1234.28 5800 
3239.82 -1221.98 5800 2086.16 -1209.02 5800 3240.18 -1208.98 5800 
2085.22 -1196.02 5800 3240.54 -1195.98 5800 2084.28 -1183.02 5800 
3240.89 -1182.98 5800 2083.34 -1170.02 5800 3241.24 -1169.98 5800 
2082.41 -1157.02 5800 3241.72 -1156.98 5800 2081.47 -1144.02 5800 
3242.21 -1143.98 5800 2080.53 -1131.02 5800 3242.71 -1130.98 5800 
2079.59 -1118.01 5800 3243.2 -1117.97 5800 2078.65 -1105.01 5800 
3243.7 -1104.97 5800 2077.72 -1092.01 5800 3244.19 -1091.97 5800 
2076.78 -1079.01 5800 3244.75 -1078.97 5800 2074.16 -1066.01 5800 
3245.32 -1065.97 5800 2070.63 -1053.01 5800 3245.91 -1052.97 5800 
2067.1 -1040.01 5800 3246.53 -1039.97 5800 2063.57 -1027.01 5800 
3247.15 -1026.97 5800 2064.29 -1014.01 5800 3247.77 -1013.97 5800 
2065.78 -1001.01 5800 3248.03 -1008.57 5800 3248.4 -1000.97 5800 
2067.18 -988.005 5800 3249.03 -987.964 5800 2069.3 -975.004 5800 
3249.65 -974.963 5800 2071.42 -962.003 5800 3250.28 -961.962 5800 
2073.55 -949.001 5800 3250.9 -948.961 5800 2075.67 -936 5800 
3251.53 -935.96 5800 2077.79 -922.999 5800 3252.15 -922.959 5800 
2079.91 -909.998 5800 3252.78 -909.958 5800 2082.04 -896.997 5800 
3252.84 -896.957 5800 2084.16 -883.996 5800 3252.76 -883.956 5800 
2086.28 -870.995 5800 2551 -870.979 5800 2552.02 -871.62 5800 
2581.02 -879.451 5800 2603.07 -870.977 5800 3252.69 -870.955 5800 
2088.01 -860.422 5800 2088.4 -857.994 5800 2530.38 -857.979 5800 
2610.02 -868.333 5800 2636.19 -857.975 5800 3250.11 -857.954 5800 
2090.52 -844.993 5800 2511.43 -844.978 5800 2523.02 -853.339 5800 
2639.02 -856.856 5800 2665.29 -844.973 5800 3248.05 -847.866 5800 
3247.39 -844.953 5800 2092.64 -831.992 5800 2493.53 -831.978 5800 
2494.02 -832.362 5800 2668.03 -843.736 5800 2697.03 -835.194 5800 
2726.03 -834.888 5800 2729.19 -831.97 5800 3244.79 -831.952 5800 
2094.77 -818.991 5800 2476.88 -818.978 5800 2741.45 -818.968 5800 
3242.12 -818.951 5800 2096.89 -805.99 5800 2460.23 -805.977 5800 
2465.02 -809.72 5800 2751.37 -805.967 5800 3239.46 -805.95 5800 
2099.01 -792.989 5800 2438.38 -792.977 5800 2755.03 -800.434 5800 
2759.04 -792.966 5800 3236.71 -792.949 5800 2101.03 -779.988 5800 
2424.89 -779.976 5800 2436.02 -791.909 5800 2768.35 -779.965 5800 
3233.57 -779.948 5800 2103.07 -766.987 5800 2415.93 -766.976 5800 
2781.51 -766.963 5800 3230.29 -766.948 5800 2105.08 -753.985 5800 
2407.79 -753.975 5800 2784.04 -764.466 5800 2794.67 -753.962 5800 
3227.9 -753.947 5800 2104.77 -740.984 5800 2397.92 -740.974 5800 
2407.02 -752.761 5800 2807.83 -740.96 5800 3226.97 -740.946 5800 
2103.57 -727.983 5800 2389.09 -727.974 5800 2813.04 -735.886 5800 
2822.02 -727.959 5800 3226.2 -727.945 5800 2101.67 -714.982 5800 
2381.3 -714.973 5800 2837.19 -714.957 5800 3225.55 -714.944 5800 
2099.78 -701.982 5800 2372.84 -701.972 5800 2378.03 -709.021 5800 
2842.04 -710.795 5800 2852.36 -701.956 5800 3224.99 -701.943 5800 
2097.92 -688.981 5800 2362.63 -688.971 5800 2864.14 -688.954 5800 
3224.76 -688.942 5800 2098.37 -675.98 5800 2353.06 -675.971 5800 
2871.05 -678.317 5800 2872 -675.953 5800 3224.69 -675.941 5800 
2100.31 -662.979 5800 2344.54 -662.97 5800 2349.03 -669.884 5800 
2877.25 -662.952 5800 3224.62 -662.94 5800 2102.91 -649.977 5800 
2338 -649.969 5800 2882.5 -649.951 5800 3224.55 -649.939 5800 
2105.55 -636.976 5800 2333.12 -636.969 5800 2887.88 -636.949 5800 
3224.48 -636.938 5800 2108.21 -623.975 5800 2329.35 -623.968 5800 
2893.35 -623.948 5800 3224.41 -623.937 5800 2110.76 -610.974 5800 
2324.84 -610.967 5800 2898.91 -610.947 5800 3224.34 -610.936 5800 
2113.31 -597.973 5800 2321.49 -597.966 5800 2900.05 -608.303 5800 
2904.59 -597.946 5800 3224.27 -597.935 5800 2115.86 -584.972 5800 
2315.49 -584.965 5800 2320.03 -594.25 5800 2910.51 -584.945 5800 
3224.2 -584.934 5800 2117.03 -579.002 5800 2118.36 -571.971 5800 
2308.45 -571.964 5800 2918.65 -571.943 5800 3224.13 -571.933 5800 
2120.32 -558.97 5800 2302.89 -558.964 5800 2926.82 -558.942 5800 
3224.66 -558.932 5800 2121.58 -545.969 5800 2295.95 -545.963 5800 
2929.06 -555.386 5800 2934.27 -545.941 5800 3226.44 -545.931 5800 
2122.55 -532.968 5800 2289.12 -532.962 5800 2291.04 -536.523 5800 
2580.46 -532.952 5800 2581.05 -533.15 5800 2581.45 -532.952 5800 
2941.13 -532.94 5800 3228.22 -532.93 5800 2121.68 -519.967 5800 
[...]
POINT_DATA 6532
SCALARS Pressure double
LOOKUP_TABLE default
3.0932710339 3.0932710339 3.0932710339 3.0932710339 3.0932710339 3.0932710339 3.0932710339 3.0932710339 3.0932710339 
3.0932710339 3.0932710339 3.0932710339 3.0932710339 3.0932710339 3.0932710339 3.0932710339 3.0932710339 3.0932710339 
3.0932710339 3.0932710339 3.0932710339 3.0932710339 3.0932710339 3.0932710339 3.0932710339 3.0932710339 3.0932710339 
3.0932710339 3.0932710339 3.0932710339 3.0932710339 3.0932710339 3.0932710339 3.0932710339 3.0932710339 3.0932710339 
3.0932710339 3.0932710339 3.0932710339 3.0932710339 3.0932710339 3.0932710339 3.0932710339 3.0932710339 3.0932710339 
3.0932710339 3.0932710339 3.0932710339 3.0932710339 3.0932710339 3.0932710339 3.0932710339 3.0932710339 3.0932710339 
3.0932710339 3.0932710339 3.0932710339 3.0932710339 3.0932710339 3.0932710339 3.0932710339 3.0932710339 3.0932710339 
3.0932710339 3.0932710339 3.0932710339 3.0932710339 3.0932710339 3.0932710339 3.0932710339 3.0932710339 3.0932710339 
3.0932710339 3.0932710339 3.0932710339 3.0932710339 3.0932710339 3.0932710339 3.0932710339 3.0932710339 3.0932710339 
3.0932710339 3.0932710339 3.0932710339 3.0932710339 3.0932710339 3.0932710339 3.0932710339 3.0932710339 3.0932710339 
3.0932710339 3.0932710339 3.0932710339 3.0932710339 3.0932710339 3.0932710339 3.0932710339 3.0932710339 3.0932710339 
3.0932710339 3.0932710339 3.0932710339 3.0932710339 3.0932710339 3.0932710339 3.0932710339 3.0932710339 3.0932710339 
3.0932710339 3.0932710339 3.0932710339 3.0932710339 3.0932710339 3.0932710339 3.0932710339 3.0932710339 3.0932710339 
3.0932710339 3.0932710339 3.0932710339 3.0932710339 3.0932710339 3.0932710339 3.0932710339 3.0932710339 3.0932710339 
3.0932710339 3.0932710339 3.0932710339 3.0932710339 3.0932710339 3.0932710339 3.0932710339 3.0932710339 3.0932710339 
3.0932710339 3.0932710339 3.0932710339 3.0932710339 3.0932710339 3.0932710339 3.0932710339 3.0932710339 3.0932710339 
3.0932710339 3.0932710339 3.0932710339 3.0932710339 3.0932710339 3.0932710339 3.0932710339 3.0932710339 3.0932710339 
3.0932710339 3.0932710339 3.0932710339 3.0932710339 3.0932710339 3.0932710339 3.0932710339 3.0932710339 3.0932710339 
3.0932710339 3.0932710339 3.0932710339 3.0932710339 3.0932710339 3.0932710339 3.0932710339 3.0932710339 3.0932710339 
3.0932710339 3.0932710339 3.0932710339 3.0932710339 3.0932710339 3.0932710339 3.0932710339 3.0932710339 3.0932710339 
3.0932710339 3.0932710339 3.0932710339 3.0932710339 3.0932710339 3.0932710339 3.0932710339 3.0932710339 3.0932710339 
3.0932710339 3.0932710339 3.0932710339 3.0932710339 3.0932710339 3.0932710339 3.0932710339 3.0932710339 3.0932710339 
3.0932710339 3.0932710339 3.0932710339 3.0932710339 3.0932710339 3.0932710339 3.0932710339 3.0932710339 3.0932710339 
3.0932710339 3.0932710339 3.0932710339 3.0932710339 3.0932710339 3.0932710339 3.0932710339 3.0932710339 3.0932710339 
3.0932710339 3.0932710339 3.0932710339 3.0932710339 3.0932710339 3.0932710339 3.0932710339 3.0932710339 3.0932710339 
3.0932710339 3.0932710339 3.0932710339 3.0932710339 3.0932710339 3.0932710339 3.0932710339 3.0932710339 3.0932710339 
3.0932710339 3.0932710339 3.0932710339 3.0932710339 3.0932710339 3.0932710339 3.0932710339 3.0932710339 3.0932710339 
3.0932710339 3.0932710339 3.0932710339 3.0932710339 3.0932710339 3.0932710339 3.0932710339 3.0932710339 3.0932710339 
3.0932710339 3.0932710339 3.0932710339 3.0932710339 3.0932710339 3.0932710339 3.0932710339 3.0932710339 3.0932710339 
3.0932710339 3.0932710339 3.0932710339 3.0932710339 3.0932710339 3.0932710339 3.0932710339 3.0932710339 3.0932710339 
3.0932710339 3.0932710339 3.0932710339 3.0932710339 3.0932710339 3.0932710339 3.0932710339 3.0932710339 3.0932710339 
3.0932710339 3.0932710339 3.0932710339 3.0932710339 3.0932710339 3.0932710339 3.0932710339 3.0932710339 3.0932710339 
3.0932710339 3.0932710339 3.0932710339 3.0932710339 3.0932710339 3.0932710339 3.0932710339 3.0932710339 3.0932710339 
3.0932710339 3.0932710339 3.0932710339 3.0932710339 3.0932710339 3.0932710339 3.0932710339 3.0932710339 3.0932710339 
3.0932710339 3.0932710339 3.0932710339 3.0932710339 3.1078652246 3.1078652246 3.1078652246 3.1078652246 3.0932710339 
3.0932710339 3.0932710339 3.1078652246 3.1078652246 3.1078652246 3.0932710339 3.0932710339 3.1078652246 3.1078652246 
3.1078652246 3.1078652246 3.0932710339 3.0932710339 3.0932710339 3.1078652246 3.1078652246 3.1078652246 3.1078652246 
3.1078652246 3.1078652246 3.0932710339 3.0932710339 3.1078652246 3.1078652246 3.0932710339 3.0932710339 3.1078652246 
3.1078652246 3.1078652246 3.0932710339 3.0932710339 3.1078652246 3.1078652246 3.1078652246 3.0932710339 3.0932710339 
3.1078652246 3.1078652246 3.1078652246 3.0932710339 3.0932710339 3.1078652246 3.1078652246 3.0932710339 3.0932710339 
3.1078652246 3.1078652246 3.1078652246 3.0932710339 3.0932710339 3.1078652246 3.1078652246 3.1078652246 3.0932710339 
3.0932710339 3.1078652246 3.1078652246 3.1078652246 3.0932710339 3.0932710339 3.1078652246 3.1078652246 3.0932710339 
3.0932710339 3.1078652246 3.1078652246 3.1078652246 3.1078652246 3.0932710339 3.0932710339 3.1078652246 3.1078652246 
3.0932710339 3.0932710339 3.1078652246 3.1078652246 3.1078652246 3.0932710339 3.0932710339 3.1078652246 3.1078652246 
3.1078652246 3.0932710339 3.0932710339 3.1078652246 3.1078652246 3.0932710339 3.0932710339 3.1078652246 3.1078652246 
3.0932710339 3.0932710339 3.1078652246 3.1078652246 3.0932710339 3.0932710339 3.1078652246 3.1078652246 3.0932710339 
3.0932710339 3.1078652246 3.1078652246 3.1078652246 3.0932710339 3.0932710339 3.1078652246 3.1078652246 3.1078652246 
3.0932710339 3.0932710339 3.0932710339 3.1078652246 3.1078652246 3.0932710339 3.0932710339 3.1078652246 3.1078652246 
3.0932710339 3.0932710339 3.1078652246 3.1078652246 3.1078652246 3.0932710339 3.0932710339 3.1078652246 3.1078652246 
3.1224594153 3.1224594153 3.1224594153 3.1078652246 3.0932710339 3.0932710339 3.1078652246 3.1224594153 3.1224594153 
3.1224594153 3.1078652246 3.0932710339 3.0932710339 3.1078652246 3.1224594153 3.1224594153 3.1224594153 3.1224594153 
3.1224594153 3.1078652246 3.0932710339 3.0786768432 3.0786768432 3.0786768432 3.0932710339 3.1078652246 3.1224594153 
3.1224594153 3.1224594153 3.1224594153 3.1078652246 3.1078652246 3.0932710339 3.0786768432 3.0786768432 3.0786768432 
3.0786768432 3.0786768432 3.0786768432 3.0786768432 3.0786768432 3.0932710339 3.1078652246 3.1224594153 3.1224594153 
3.1224594153 3.1078652246 3.0932710339 3.0786768432 3.0786768432 3.0786768432 3.0786768432 3.0786768432 3.0786768432 
3.0786768432 3.0786768432 3.0786768432 3.0786768432 3.0786768432 3.0932710339 3.1078652246 3.1078652246 3.1224594153 
3.1224594153 3.1224594153 3.1078652246 3.0932710339 3.0786768432 3.0786768432 3.0786768432 3.0786768432 3.0786768432 
3.0786768432 3.0786768432 3.0932710339 3.1078652246 3.1224594153 3.1224594153 3.1224594153 3.1078652246 3.0932710339 
3.0786768432 3.0786768432 3.0786768432 3.0786768432 3.0786768432 3.0932710339 3.1078652246 3.1224594153 3.1224594153 
3.1224594153 3.1078652246 3.0932710339 3.0786768432 3.0786768432 3.0786768432 3.0786768432 3.0786768432 3.0786768432 
3.0786768432 3.0786768432 3.0932710339 3.1078652246 3.1224594153 3.1224594153 3.1224594153 3.1078652246 3.1078652246 
3.0932710339 3.0786768432 3.0786768432 3.0786768432 3.0786768432 3.0932710339 3.1078652246 3.1224594153 3.1224594153 
3.1224594153 3.1078652246 3.0932710339 3.0786768432 3.0786768432 3.0786768432 3.0786768432 3.0786768432 3.0786768432 
3.0932710339 3.1078652246 3.1224594153 3.1224594153 3.1078652246 3.0932710339 3.0786768432 3.0786768432 3.0786768432 
3.0786768432 3.0932710339 3.1078652246 3.1224594153 3.1224594153 3.1224594153 3.1078652246 3.0932710339 3.0786768432 
3.0786768432 3.0786768432 3.0786768432 3.0786768432 3.0786768432 3.0786768432 3.0786768432 3.0932710339 3.1078652246 
3.1224594153 3.1224594153 3.1224594153 3.1078652246 3.0932710339 3.0932710339 3.0786768432 3.0786768432 3.0786768432 
3.0786768432 3.0786768432 3.0932710339 3.1078652246 3.1224594153 3.1224594153 3.1224594153 3.1078652246 3.1078652246 
3.0932710339 3.0786768432 3.0786768432 3.0786768432 3.0786768432 3.0786768432 3.0786768432 3.0932710339 3.1078652246 
3.1224594153 3.1224594153 3.1078652246 3.0932710339 3.0786768432 3.0786768432 3.0786768432 3.0786768432 3.0932710339 
3.0932710339 3.1078652246 3.1224594153 3.1224594153 3.1078652246 3.0932710339 3.0786768432 3.0786768432 3.0786768432 
3.0786768432 3.0786768432 3.0786768432 3.0932710339 3.1078652246 3.1224594153 3.1224594153 3.137053606 3.137053606 
3.137053606 3.137053606 3.137053606 3.1224594153 3.1078652246 3.0932710339 3.0786768432 3.0786768432 3.0786768432 
3.0786768432 3.0786768432 3.0786768432 3.0932710339 3.1078652246 3.1078652246 3.1224594153 3.137053606 3.137053606 
3.137053606 3.137053606 3.1224594153 3.1224594153 3.1078652246 3.0932710339 3.0786768432 3.0786768432 3.0786768432 
3.0786768432 3.0786768432 3.0932710339 3.1078652246 3.1224594153 3.137053606 3.137053606 3.137053606 3.137053606 
3.1224594153 3.1078652246 3.0932710339 3.0786768432 3.0786768432 3.0786768432 3.0786768432 3.0786768432 3.0932710339 
3.1078652246 3.1224594153 3.137053606 3.137053606 3.137053606 3.1224594153 3.1078652246 3.1078652246 3.0932710339 
3.0786768432 3.0786768432 3.0786768432 3.0786768432 3.0932710339 3.1078652246 3.1224594153 3.137053606 3.137053606 
3.137053606 3.1224594153 3.1078652246 3.0932710339 3.0786768432 3.0786768432 3.0786768432 3.0786768432 3.0786768432 
3.0786768432 3.0932710339 3.1078652246 3.1224594153 3.1224594153 3.137053606 3.137053606 3.1224594153 3.1224594153 
3.1078652246 3.0932710339 3.0786768432 3.0786768432 3.0786768432 3.0786768432 3.0932710339 3.1078652246 3.1224594153 
3.137053606 3.137053606 3.137053606 3.1224594153 3.1078652246 3.0932710339 3.0786768432 3.0786768432 3.0786768432 
3.0786768432 3.0786768432 3.0932710339 3.1078652246 3.1224594153 3.137053606 3.137053606 3.137053606 3.1224594153 
3.1078652246 3.0932710339 3.0786768432 3.0786768432 3.0786768432 3.0786768432 3.0932710339 3.1078652246 3.1224594153 
3.137053606 3.137053606 3.137053606 3.1224594153 3.1078652246 3.0932710339 3.0786768432 3.0786768432 3.0786768432 
3.0786768432 3.0786768432 3.0786768432 3.0932710339 3.1078652246 3.1224594153 3.1224594153 3.137053606 3.137053606 
3.1224594153 3.1078652246 3.0932710339 3.0786768432 3.0786768432 3.0786768432 3.0786768432 3.0640826525 3.0640826525 
3.0640826525 3.0786768432 3.0932710339 3.1078652246 3.1078652246 3.1224594153 3.137053606 3.137053606 3.1224594153 
3.1078652246 3.0932710339 3.0786768432 3.0786768432 3.0786768432 3.0640826525 3.0640826525 3.0640826525 3.0640826525 
3.0640826525 3.0640826525 3.0640826525 3.0786768432 3.0932710339 3.1078652246 3.1224594153 3.137053606 3.137053606 
3.1516477967 3.1516477967 3.1516477967 3.1516477967 3.1516477967 3.1516477967 3.137053606 3.137053606 3.1224594153 
3.1224594153 3.1078652246 3.0932710339 3.0786768432 3.0786768432 3.0786768432 3.0786768432 3.0640826525 3.0640826525 
3.0640826525 3.0786768432 3.0932710339 3.1078652246 3.1224594153 3.137053606 3.1516477967 3.1516477967 3.1516477967 
3.137053606 3.1224594153 3.1078652246 3.0932710339 3.0786768432 3.0786768432 3.0786768432 3.0640826525 3.0640826525 
3.0640826525 3.0786768432 3.0932710339 3.1078652246 3.1224594153 3.137053606 3.137053606 3.1516477967 3.1516477967 
3.1516477967 3.137053606 3.1224594153 3.1078652246 3.0932710339 3.0786768432 3.0786768432 3.0786768432 3.0786768432 
3.0640826525 3.0640826525 3.0640826525 3.0786768432 3.0932710339 3.1078652246 3.1224594153 3.1224594153 3.137053606 
3.1516477967 3.1516477967 3.1516477967 3.137053606 3.1224594153 3.1078652246 3.0932710339 3.0786768432 3.0786768432 
3.0786768432 3.0786768432 3.0640826525 3.0640826525 3.0640826525 3.0786768432 3.0932710339 3.1078652246 3.1224594153 
3.137053606 3.1516477967 3.1516477967 3.1516477967 3.1516477967 3.137053606 3.1224594153 3.1078652246 3.0932710339 
3.0786768432 3.0786768432 3.0786768432 3.0786768432 3.0640826525 3.0640826525 3.0786768432 3.0932710339 3.1078652246 
3.1224594153 3.137053606 3.137053606 3.1516477967 3.1516477967 3.137053606 3.1224594153 3.1078652246 3.0932710339 
3.0932710339 3.0786768432 3.0786768432 3.0786768432 3.0786768432 3.0786768432 3.0786768432 3.0786768432 3.0786768432 
3.0786768432 3.0640826525 3.0640826525 3.0786768432 3.0786768432 3.0932710339 3.1078652246 3.1224594153 3.137053606 
3.1516477967 3.1516477967 3.1516477967 3.137053606 3.1224594153 3.1078652246 3.0932710339 3.0786768432 3.0786768432 
3.0786768432 3.0786768432 3.0640826525 3.0640826525 3.0494884618 3.0494884618 3.0494884618 3.0494884618 3.0494884618 
3.0640826525 3.0640826525 3.0786768432 3.0932710339 3.1078652246 3.1224594153 3.137053606 3.1516477967 3.1516477967 
3.137053606 3.1224594153 3.1078652246 3.0932710339 3.0786768432 3.0786768432 3.0786768432 3.0786768432 3.0640826525 
3.0494884618 3.0494884618 3.0494884618 3.0494884618 3.0640826525 3.0786768432 3.0932710339 3.1078652246 3.1078652246 
3.1224594153 3.1224594153 3.137053606 3.1516477967 3.1516477967 3.1516477967 3.137053606 3.1224594153 3.1224594153 
3.1078652246 3.0932710339 3.0786768432 3.0786768432 3.0640826525 3.0640826525 3.0640826525 3.0640826525 3.0640826525 
3.0786768432 3.0786768432 3.0786768432 3.0640826525 3.0494884618 3.0494884618 3.0640826525 3.0786768432 3.0932710339 
3.0932710339 3.1078652246 3.1224594153 3.137053606 3.137053606 3.1516477967 3.1516477967 3.137053606 3.1224594153 
3.1078652246 3.0932710339 3.0786768432 3.0640826525 3.0640826525 3.0640826525 3.0786768432 3.0786768432 3.0786768432 
3.0786768432 3.0640826525 3.0494884618 3.0494884618 3.0494884618 3.0640826525 3.0786768432 3.0932710339 3.1078652246 
3.1224594153 3.137053606 3.1516477967 3.1662419875 3.1662419875 3.1662419875 3.1516477967 3.137053606 3.1224594153 
3.1078652246 3.1078652246 3.0932710339 3.0786768432 3.0640826525 3.0640826525 3.0640826525 3.0786768432 3.0786768432 
3.0640826525 3.0494884618 3.0348942711 3.0348942711 3.0348942711 3.0348942711 3.0348942711 3.0494884618 3.0494884618 
3.0640826525 3.0786768432 3.0932710339 3.1078652246 3.1224594153 3.137053606 3.1516477967 2.9473291268 2.9473291268 
2.9619233175 2.9619233175 2.9765175082 2.9765175082 2.991111699 2.991111699 3.0057058897 3.0057058897 3.0203000804 
3.0203000804 3.0348942711 3.0348942711 3.0494884618 3.0494884618 3.0640826525 3.0640826525 3.0786768432 3.0786768432 
3.0932710339 3.0932710339 3.1078652246 3.1078652246 3.1224594153 3.1224594153 3.137053606 3.137053606 3.1516477967 
3.1516477967 2.9473291268 2.9619233175 2.9765175082 2.991111699 3.0057058897 3.0203000804 3.0348942711 3.0494884618 
3.0640826525 3.0786768432 3.0932710339 3.1078652246 3.1224594153 3.137053606 3.1516477967 2.9473291268 2.9619233175 
2.9765175082 2.991111699 3.0057058897 3.0203000804 3.0348942711 3.0494884618 3.0640826525 3.0786768432 3.0932710339 
3.1078652246 3.1224594153 3.137053606 3.1516477967 3.1662419875 2.9473291268 2.9619233175 2.9765175082 2.991111699 
3.0057058897 3.0203000804 3.0348942711 3.0494884618 3.0640826525 3.0786768432 3.0932710339 3.1078652246 3.1224594153 
3.137053606 3.1516477967 2.9473291268 2.9619233175 2.9765175082 2.991111699 3.0057058897 3.0203000804 3.0348942711 
3.0494884618 3.0640826525 3.0786768432 3.0932710339 3.1078652246 3.1224594153 3.137053606 3.1516477967 2.9473291268 
2.9619233175 2.9765175082 2.991111699 3.0057058897 3.0203000804 3.0348942711 3.0494884618 3.0640826525 3.0786768432 
3.0932710339 3.1078652246 3.1224594153 3.137053606 3.1516477967 2.9473291268 2.9619233175 2.9765175082 2.991111699 
3.0057058897 3.0203000804 3.0348942711 3.0494884618 3.0640826525 3.0786768432 3.0932710339 3.1078652246 3.1224594153 
3.137053606 3.1516477967 2.9473291268 2.9619233175 2.9765175082 2.991111699 3.0057058897 3.0203000804 3.0348942711 
3.0494884618 3.0640826525 3.0786768432 3.0932710339 3.1078652246 3.1224594153 3.137053606 3.1516477967 2.9473291268 
2.9619233175 2.9765175082 2.991111699 3.0057058897 3.0203000804 3.0348942711 3.0494884618 3.0640826525 3.0786768432 
3.0932710339 3.1078652246 3.1224594153 3.137053606 3.1516477967 2.9473291268 2.9619233175 2.9765175082 2.991111699 
3.0057058897 3.0203000804 3.0348942711 3.0494884618 3.0640826525 3.0786768432 3.0932710339 3.1078652246 3.1224594153 
3.137053606 2.9473291268 2.9619233175 2.9765175082 2.991111699 3.0057058897 3.0203000804 3.0348942711 3.0494884618 
3.0640826525 3.0786768432 3.0932710339 3.1078652246 3.1224594153 3.137053606 2.9473291268 2.9619233175 2.9765175082 
2.991111699 3.0057058897 3.0203000804 3.0348942711 3.0494884618 3.0640826525 3.0786768432 3.0932710339 3.1078652246 
3.1224594153 3.137053606 2.9473291268 2.9619233175 2.9765175082 2.991111699 3.0057058897 3.0203000804 3.0348942711 
3.0494884618 3.0640826525 3.0786768432 3.0932710339 3.1078652246 3.1224594153 3.137053606 3.137053606 3.1224594153 
3.1078652246 3.0932710339 3.0786768432 3.0640826525 3.0640826525 3.0640826525 3.0786768432 3.0786768432 3.0786768432 
3.0640826525 3.0494884618 3.0348942711 3.0348942711 3.0494884618 3.0640826525 3.0786768432 3.0932710339 3.1078652246 
3.1224594153 2.9473291268 2.9473291268 2.9619233175 2.9619233175 2.9765175082 2.9765175082 2.991111699 2.991111699 
3.0057058897 3.0057058897 3.0203000804 3.0203000804 3.0348942711 3.0348942711 3.0494884618 3.0494884618 3.0640826525 
3.0640826525 3.0786768432 3.0786768432 3.0932710339 3.0932710339 3.1078652246 3.1078652246 3.1224594153 3.1224594153 
3.137053606 2.9473291268 2.9619233175 2.9765175082 2.991111699 3.0057058897 3.0203000804 3.0348942711 3.0494884618 
3.0640826525 3.0786768432 3.0932710339 3.1078652246 3.1224594153 3.137053606 2.9473291268 2.9619233175 2.9765175082 
2.991111699 3.0057058897 3.0203000804 3.0348942711 3.0494884618 3.0640826525 3.0786768432 3.0932710339 3.1078652246 
3.1224594153 3.137053606 3.1516477967 2.9473291268 2.9619233175 2.9765175082 2.991111699 3.0057058897 3.0203000804 
3.0348942711 3.0494884618 3.0640826525 3.0786768432 3.0932710339 3.1078652246 3.1224594153 3.137053606 3.1516477967 
2.9473291268 2.9619233175 2.9765175082 2.991111699 3.0057058897 3.0203000804 3.0348942711 3.0494884618 3.0640826525 
3.0786768432 3.0932710339 3.1078652246 3.1224594153 3.137053606 2.9473291268 2.9619233175 2.9765175082 2.991111699 
3.0057058897 3.0203000804 3.0348942711 3.0494884618 3.0640826525 3.0786768432 3.0932710339 3.1078652246 3.1224594153 
2.9473291268 2.9619233175 2.9765175082 2.991111699 3.0057058897 3.0203000804 3.0348942711 3.0494884618 3.0640826525 
3.0786768432 3.0932710339 3.1078652246 3.1224594153 2.9473291268 2.9619233175 2.9765175082 2.991111699 3.0057058897 
3.0203000804 3.0348942711 3.0494884618 3.0640826525 3.0786768432 3.0932710339 3.1078652246 3.1224594153 2.9473291268 
2.9619233175 2.9765175082 2.991111699 3.0057058897 3.0203000804 3.0348942711 3.0494884618 3.0640826525 3.0786768432 
3.0932710339 3.1078652246 3.1224594153 2.9473291268 2.9619233175 2.9765175082 2.991111699 3.0057058897 3.0203000804 
3.0348942711 3.0494884618 3.0640826525 3.0786768432 3.0932710339 3.1078652246 3.1224594153 2.9473291268 2.9619233175 
2.9765175082 2.991111699 3.0057058897 3.0203000804 3.0348942711 3.0494884618 3.0640826525 3.0786768432 3.0932710339 
3.1078652246 2.9473291268 2.9619233175 2.9765175082 2.991111699 3.0057058897 3.0203000804 3.0348942711 3.0494884618 
3.0640826525 3.0786768432 3.0932710339 3.1078652246 2.9473291268 2.9619233175 2.9765175082 2.991111699 3.0057058897 
3.0203000804 3.0348942711 3.0494884618 3.0640826525 3.0786768432 3.0932710339 3.1078652246 3.1078652246 3.0932710339 
3.0932710339 3.0786768432 3.0640826525 3.0640826525 3.0640826525 3.0786768432 3.0786768432 3.0786768432 3.0640826525 
3.0494884618 3.0348942711 3.0348942711 3.0203000804 3.0203000804 3.0203000804 3.0348942711 3.0494884618 3.0640826525 
3.0786768432 3.0932710339 2.9473291268 2.9473291268 2.9619233175 2.9619233175 2.9765175082 2.9765175082 2.991111699 