# vtk DataFile Version 4.2
vtk output
ASCII
DATASET POLYDATA
POINTS 7378 float
1609.61 -3009.13 0 1627.87 -3018.79 0 1646.26 -3009.13 0 
1588.8 -2992.13 0 1590.87 -2995.27 0 1664.87 -2999.36 0 
1678.64 -2992.13 0 1577.59 -2975.13 0 1701.87 -2979.94 0 
1711.03 -2975.13 0 1566.39 -2958.13 0 1738.87 -2960.51 0 
1744.93 -2958.13 0 1555.18 -2941.13 0 1775.87 -2950.99 0 
1812.88 -2945.2 0 1838.87 -2941.12 0 1543.97 -2924.13 0 
1553.87 -2939.14 0 1849.88 -2939.4 0 1886.88 -2933.6 0 
1923.88 -2927.8 0 1947.4 -2924.12 0 1517.31 -2907.13 0 
1960.88 -2922.01 0 1997.88 -2916.21 0 2034.88 -2910.41 0 
2055.93 -2907.12 0 1468.53 -2890.13 0 1479.87 -2894.08 0 
1516.87 -2906.98 0 2071.89 -2904.62 0 2108.89 -2898.82 0 
2145.89 -2893.02 0 2164.47 -2890.11 0 1419.75 -2873.13 0 
1442.87 -2881.19 0 2182.89 -2887.23 0 2219.89 -2881.43 0 
2227.73 -2873.11 0 1370.97 -2856.13 0 1405.87 -2868.29 0 
2238.13 -2856.11 0 1322.2 -2839.13 0 1331.87 -2842.5 0 
1368.87 -2855.4 0 2244.56 -2839.11 0 1273.42 -2822.13 0 
1294.87 -2829.61 0 2247.32 -2822.11 0 1224.64 -2805.13 0 
1257.87 -2816.71 0 2250.21 -2805.1 0 1175.86 -2788.13 0 
1183.87 -2790.92 0 1220.87 -2803.82 0 2253.1 -2788.1 0 
1127.08 -2771.13 0 1146.87 -2778.03 0 2256 -2771.1 0 
1078.31 -2754.13 0 1109.87 -2765.13 0 2256.9 -2765.8 0 
2258.89 -2754.1 0 1045.9 -2737.13 0 1072.87 -2752.24 0 
2261.78 -2737.1 0 1019.92 -2720.13 0 1035.87 -2730.56 0 
2264.67 -2720.1 0 993.933 -2703.13 0 998.868 -2706.36 0 
2267.57 -2703.1 0 967.943 -2686.13 0 2270.46 -2686.1 0 
955.678 -2669.13 0 961.868 -2682.16 0 2273.35 -2669.1 0 
947.787 -2652.13 0 2276.24 -2652.09 0 940.101 -2635.13 0 
2279.14 -2635.09 0 932.612 -2618.13 0 2282.03 -2618.09 0 
925.313 -2601.13 0 2284.92 -2601.09 0 918.837 -2584.13 0 
924.872 -2600.09 0 2287.81 -2584.09 0 912.408 -2567.13 0 
2290.71 -2567.09 0 905.98 -2550.13 0 2293.6 -2550.09 0 
899.551 -2533.12 0 2293.91 -2548.25 0 2296.49 -2533.09 0 
893.122 -2516.12 0 2299.39 -2516.09 0 886.693 -2499.12 0 
887.877 -2502.25 0 2302.28 -2499.08 0 880.264 -2482.12 0 
2305.17 -2482.08 0 873.836 -2465.12 0 2308.06 -2465.08 0 
867.407 -2448.12 0 2310.96 -2448.08 0 860.978 -2431.12 0 
2313.85 -2431.08 0 854.549 -2414.12 0 2316.74 -2414.08 0 
848.12 -2397.12 0 850.882 -2404.42 0 2319.63 -2397.08 0 
841.692 -2380.12 0 2322.53 -2380.08 0 835.263 -2363.12 0 
2325.42 -2363.08 0 828.834 -2346.12 0 2328.31 -2346.07 0 
822.405 -2329.11 0 2330.93 -2330.71 0 2331.2 -2329.07 0 
815.976 -2312.11 0 2334.1 -2312.07 0 809.548 -2295.11 0 
813.886 -2306.59 0 2336.99 -2295.07 0 803.119 -2278.11 0 
2339.88 -2278.07 0 796.69 -2261.11 0 2342.77 -2261.07 0 
790.261 -2244.11 0 2346.66 -2244.07 0 783.832 -2227.11 0 
2357.5 -2227.07 0 777.404 -2210.11 0 2367.93 -2212.16 0 
2369.4 -2210.07 0 770.975 -2193.11 0 776.891 -2208.75 0 
2381.31 -2193.06 0 764.546 -2176.11 0 2393.21 -2176.06 0 
758.117 -2159.11 0 2404.94 -2159.32 0 2405.12 -2159.06 0 
753.944 -2142.11 0 2417.02 -2142.06 0 751.362 -2125.1 0 
2428.92 -2125.06 0 748.883 -2108.1 0 2440.83 -2108.06 0 
746.404 -2091.1 0 2441.94 -2106.47 0 2452.73 -2091.06 0 
743.925 -2074.1 0 2464.64 -2074.06 0 741.447 -2057.1 0 
2476.54 -2057.05 0 738.968 -2040.1 0 739.9 -2046.49 0 
2478.95 -2053.62 0 2484.07 -2040.05 0 736.489 -2023.1 0 
2485.89 -2023.05 0 734.01 -2006.1 0 2484.7 -2006.05 0 
731.532 -1989.1 0 2483.51 -1989.05 0 729.053 -1972.1 0 
2482.31 -1972.05 0 726.574 -1955.1 0 2481.12 -1955.05 0 
724.096 -1938.09 0 2479.92 -1938.05 0 721.617 -1921.09 0 
2478.95 -1924.25 0 2478.73 -1921.05 0 719.138 -1904.09 0 
2477.54 -1904.05 0 716.659 -1887.09 0 2476.34 -1887.04 0 
714.181 -1870.09 0 2475.15 -1870.04 0 711.702 -1853.09 0 
2473.95 -1853.04 0 709.223 -1836.09 0 2472.76 -1836.04 0 
706.744 -1819.09 0 2471.57 -1819.04 0 704.266 -1802.09 0 
2470.37 -1802.04 0 701.787 -1785.09 0 702.914 -1792.81 0 
2469.18 -1785.04 0 699.305 -1768.09 0 2467.98 -1768.04 0 
697.03 -1751.08 0 2466.79 -1751.04 0 694.903 -1734.08 0 
2465.6 -1734.04 0 692.911 -1717.08 0 2464.4 -1717.03 0 
688.211 -1700.08 0 2463.21 -1700.03 0 683.748 -1683.08 0 
2462.01 -1683.03 0 679.872 -1666.08 0 2460.82 -1666.03 0 
677.032 -1649.08 0 2459.63 -1649.03 0 674.359 -1632.08 0 
2458.43 -1632.03 0 670.59 -1615.08 0 2457.24 -1615.03 0 
666.822 -1598.08 0 2456.45 -1598.03 0 -481.107 -1592.33 0 
-503.44 -1581.11 0 -444.106 -1591.52 0 -413.074 -1581.1 0 
662.497 -1581.08 0 665.924 -1594.03 0 2457.05 -1581.03 0 
-518.107 -1573.74 0 -537.273 -1564.11 0 -407.104 -1579.1 0 
-370.102 -1566.69 0 -362.395 -1564.1 0 658.663 -1564.07 0 
2458.08 -1564.03 0 -555.107 -1555.15 0 -571.105 -1547.11 0 
-333.1 -1554.27 0 -311.716 -1547.1 0 655.424 -1547.07 0 
2459.11 -1547.02 0 -592.106 -1536.55 0 -604.937 -1530.11 0 
-296.099 -1541.86 0 -261.038 -1530.1 0 651.749 -1530.07 0 
2460.14 -1530.02 0 -629.106 -1517.96 0 -638.77 -1513.11 0 
-259.097 -1529.45 0 -222.095 -1517.03 0 -210.359 -1513.09 0 
647.981 -1513.07 0 2461.17 -1513.02 0 -666.106 -1499.37 0 
-672.602 -1496.11 0 -185.094 -1504.62 0 -159.681 -1496.09 0 
644.213 -1496.07 0 2462.2 -1496.02 0 -703.106 -1480.78 0 
-706.435 -1479.11 0 -148.092 -1492.2 0 -111.09 -1479.79 0 
-109.002 -1479.09 0 640.444 -1479.07 0 2463.23 -1479.02 0 
-732.373 -1462.11 0 -74.0886 -1471.61 0 -61.2388 -1462.09 0 
636.676 -1462.07 0 2464.27 -1462.02 0 -740.106 -1454.16 0 
-746.536 -1445.11 0 -37.4744 -1445.09 0 632.908 -1445.07 0 
1364.91 -1445.05 0 1368.95 -1446.02 0 1405.95 -1447.09 0 
1442.95 -1448.15 0 1479.95 -1449.21 0 1516.96 -1450.27 0 
1553.96 -1446.76 0 1555.78 -1445.04 0 2465.3 -1445.02 0 
-758.614 -1428.1 0 -37.086 -1444.76 0 -25.2365 -1428.08 0 
629.14 -1428.07 0 1309.19 -1428.05 0 1331.95 -1436.15 0 
1572.86 -1428.04 0 2466.33 -1428.02 0 -770.693 -1411.1 0 
-13.1534 -1411.08 0 625.371 -1411.07 0 628.933 -1427.13 0 
1261.4 -1411.05 0 1294.95 -1422.99 0 1589.93 -1411.04 0 
2467.36 -1411.02 0 -777.104 -1402.08 0 -782.771 -1394.1 0 
-1.11012 -1394.08 0 621.603 -1394.07 0 1218.62 -1394.05 0 
1220.95 -1396.27 0 1257.95 -1409.82 0 1590.96 -1410.02 0 
1607.01 -1394.04 0 2468.39 -1394.02 0 -794.85 -1377.1 0 
-0.0819182 -1392.69 0 11.0126 -1377.08 0 617.835 -1377.06 0 
1202.25 -1377.05 0 1624.09 -1377.04 0 2469.42 -1377.01 0 
-806.928 -1360.1 0 23.0957 -1360.08 0 614.067 -1360.06 0 
1182.9 -1360.05 0 1183.95 -1361.05 0 1627.96 -1373.18 0 
1641.16 -1360.04 0 2470.45 -1360.01 0 -814.101 -1350.01 0 
-819.007 -1343.1 0 35.1787 -1343.08 0 610.298 -1343.06 0 
1165.06 -1343.05 0 1658.24 -1343.03 0 2471.49 -1343.01 0 
-831.085 -1326.1 0 36.9221 -1340.62 0 47.2617 -1326.08 0 
606.53 -1326.06 0 1147.21 -1326.05 0 1664.97 -1336.34 0 
1675.32 -1326.03 0 2472.52 -1326.01 0 -843.164 -1309.1 0 
59.3448 -1309.08 0 600.907 -1309.06 0 1121.72 -1309.05 0 
1146.95 -1325.84 0 1692.39 -1309.03 0 2473.55 -1309.01 0 
-851.099 -1297.93 0 -855.242 -1292.1 0 71.4278 -1292.07 0 
591.096 -1292.06 0 591.94 -1293.52 0 1096.07 -1292.05 0 
1109.95 -1301.25 0 1701.97 -1299.5 0 1709.66 -1292.03 0 
2474.58 -1292.01 0 -867.321 -1275.1 0 73.9262 -1288.56 0 
83.5108 -1275.07 0 582.348 -1275.06 0 1070.42 -1275.05 0 
1072.95 -1276.73 0 1723.17 -1275.03 0 2472.75 -1275.01 0 
-879.399 -1258.1 0 95.5938 -1258.07 0 575.303 -1258.06 0 
1044.77 -1258.05 0 1734.92 -1258.03 0 2469.65 -1258.01 0 
-888.097 -1245.85 0 -891.478 -1241.1 0 107.677 -1241.07 0 
569.628 -1241.06 0 1019.11 -1241.05 0 1035.95 -1252.21 0 
1738.97 -1252.87 0 1746.63 -1241.03 0 2467.25 -1241.01 0 
-903.556 -1224.1 0 110.93 -1236.49 0 119.76 -1224.07 0 
565.596 -1224.06 0 995.777 -1224.05 0 998.955 -1227.68 0 
1757.61 -1224.02 0 2463.95 -1224.01 0 -915.635 -1207.1 0 
129.247 -1207.07 0 561.564 -1207.06 0 980.884 -1207.04 0 
1768.66 -1207.02 0 2460.53 -1207 0 -925.095 -1193.78 0 
-927.713 -1190.1 0 134.675 -1190.07 0 557.532 -1190.05 0 
965.915 -1190.04 0 1775.98 -1195.61 0 1779.59 -1190.02 0 
2457.96 -1190 0 -939.792 -1173.09 0 138.459 -1173.07 0 
553.483 -1173.05 0 554.946 -1179.15 0 953.253 -1173.04 0 
961.956 -1185.56 0 1790.58 -1173.02 0 2456.49 -1173 0 
-951.87 -1156.09 0 140.801 -1156.06 0 549.407 -1156.05 0 
941.475 -1156.04 0 1801.57 -1156.02 0 2456.11 -1156 0 
-962.093 -1141.7 0 -963.948 -1139.09 0 142.448 -1139.06 0 
545.336 -1139.05 0 930.902 -1139.04 0 1812.56 -1139.02 0 
2455.72 -1139 0 -979.297 -1122.09 0 144.095 -1122.06 0 
541.271 -1122.05 0 921.198 -1122.04 0 924.959 -1128.89 0 
1812.98 -1138.36 0 1823.54 -1122.02 0 2455.38 -1122 0 
-998.948 -1105.09 0 145.741 -1105.06 0 537.212 -1105.05 0 
911.857 -1105.04 0 1834.53 -1105.02 0 2455.09 -1105 0 
-999.092 -1104.97 0 -1014.08 -1088.09 0 147.388 -1088.06 0 
533.158 -1088.05 0 902.516 -1088.04 0 1845.52 -1088.01 0 
2454.81 -1088 0 -1021.92 -1071.09 0 147.94 -1082.36 0 
149.04 -1071.06 0 529.11 -1071.05 0 893.176 -1071.04 0 
1849.99 -1081.1 0 1855.75 -1071.01 0 2454.52 -1071 0 
-1025.21 -1054.09 0 155.725 -1054.06 0 525.067 -1054.05 0 
881.858 -1054.04 0 887.961 -1063.47 0 1864.41 -1054.01 0 
2454.24 -1054 0 -1027.57 -1037.09 0 162.5 -1037.06 0 
521.029 -1037.05 0 867.193 -1037.04 0 1871.97 -1037.01 0 
2453.97 -1036.99 0 -1029.92 -1020.09 0 169.276 -1020.06 0 
516.971 -1020.05 0 517.954 -1024.08 0 852.349 -1020.04 0 
1878.15 -1020.01 0 2453.69 -1019.99 0 -1032.28 -1003.09 0 
176.052 -1003.05 0 512.831 -1003.05 0 837.505 -1003.04 0 
850.963 -1018.45 0 1884.24 -1003.01 0 2453.42 -1002.99 0 
-1034.63 -986.086 0 182.827 -986.053 0 508.769 -986.044 0 
822.661 -986.036 0 1886.99 -995.326 0 1890.33 -986.007 0 
2453.15 -985.992 0 -1036.09 -975.594 0 -1036.99 -969.085 0 
184.947 -980.734 0 189.603 -969.052 0 505.642 -969.043 0 
807.817 -969.035 0 813.965 -976.076 0 1896.42 -969.006 0 
2452.92 -968.991 0 -1039.34 -952.084 0 196.379 -952.051 0 
501.872 -952.042 0 793.743 -952.035 0 1903.08 -952.005 0 
2452.06 -951.99 0 -1041.7 -935.083 0 203.154 -935.049 0 
498.184 -935.042 0 780.965 -935.034 0 1911.22 -935.003 0 
2449.83 -934.989 0 -1044.05 -918.082 0 207.674 -918.048 0 
493.29 -918.041 0 770.337 -918.033 0 776.966 -929.387 0 
1919.48 -918.002 0 2447.3 -917.988 0 -1046.41 -901.081 0 
[...]
POINT_DATA 7378
SCALARS Pressure double
LOOKUP_TABLE default
3.0932710339 3.0932710339 3.0932710339 3.0932710339 3.0932710339 3.0932710339 3.0932710339 3.0932710339 3.0932710339 
3.0932710339 3.0932710339 3.0932710339 3.0932710339 3.0932710339 3.0932710339 3.0932710339 3.0932710339 3.0932710339 
3.0932710339 3.0932710339 3.0932710339 3.0932710339 3.0932710339 3.0932710339 3.0932710339 3.0932710339 3.0932710339 
3.0932710339 3.0932710339 3.0932710339 3.0932710339 3.0932710339 3.0932710339 3.0932710339 3.0932710339 3.0932710339 
3.0932710339 3.0932710339 3.0932710339 3.0932710339 3.0932710339 3.0932710339 3.0932710339 3.0932710339 3.0932710339 
3.0932710339 3.0932710339 3.0932710339 3.0932710339 3.0932710339 3.0932710339 3.0932710339 3.0932710339 3.0932710339 
3.0932710339 3.0932710339 3.0932710339 3.0932710339 3.0932710339 3.0932710339 3.0932710339 3.0932710339 3.0932710339 
3.0932710339 3.0932710339 3.0932710339 3.0932710339 3.0932710339 3.0932710339 3.0932710339 3.0932710339 3.0932710339 
3.0932710339 3.0932710339 3.0932710339 3.0932710339 3.0932710339 3.0932710339 3.0932710339 3.0932710339 3.0932710339 
3.0932710339 3.0932710339 3.0932710339 3.0932710339 3.0932710339 3.0932710339 3.0932710339 3.0932710339 3.0932710339 
3.0932710339 3.0932710339 3.0932710339 3.0932710339 3.0932710339 3.0932710339 3.0932710339 3.0932710339 3.0932710339 
3.0932710339 3.0932710339 3.0932710339 3.0932710339 3.0932710339 3.0932710339 3.0932710339 3.0932710339 3.0932710339 
3.0932710339 3.0932710339 3.0932710339 3.0932710339 3.0932710339 3.0932710339 3.0932710339 3.0932710339 3.0932710339 
3.0932710339 3.0932710339 3.0932710339 3.0932710339 3.0932710339 3.0932710339 3.0932710339 3.0932710339 3.0932710339 
3.0932710339 3.0932710339 3.0932710339 3.0932710339 3.0932710339 3.0932710339 3.0932710339 3.0932710339 3.0932710339 
3.0932710339 3.0932710339 3.0932710339 3.0932710339 3.0932710339 3.0932710339 3.0932710339 3.0932710339 3.0932710339 
3.0932710339 3.0932710339 3.0932710339 3.0932710339 3.0932710339 3.0932710339 3.0932710339 3.0932710339 3.0932710339 
3.0932710339 3.0932710339 3.0932710339 3.0932710339 3.0932710339 3.0932710339 3.0932710339 3.0932710339 3.0932710339 
3.0932710339 3.0932710339 3.0932710339 3.0932710339 3.0932710339 3.0932710339 3.0932710339 3.0932710339 3.0932710339 
3.0932710339 3.0932710339 3.0932710339 3.0932710339 3.0932710339 3.0932710339 3.0932710339 3.0932710339 3.0932710339 
3.0932710339 3.0932710339 3.0932710339 3.0932710339 3.0932710339 3.0932710339 3.0932710339 3.0932710339 3.0932710339 
3.0932710339 3.0932710339 3.0932710339 3.0932710339 3.0932710339 3.0932710339 3.0932710339 3.0932710339 3.0932710339 
3.0932710339 3.0932710339 3.0932710339 3.0932710339 3.0932710339 3.0932710339 3.0932710339 3.0932710339 3.0932710339 
3.0932710339 3.0932710339 3.0932710339 3.0932710339 3.0932710339 3.0932710339 3.0932710339 3.0932710339 3.0932710339 
3.0932710339 3.0932710339 3.0786768432 3.0786768432 3.0786768432 3.0786768432 3.0932710339 3.0932710339 3.0932710339 
3.0786768432 3.0786768432 3.0786768432 3.0786768432 3.0786768432 3.0932710339 3.0932710339 3.0786768432 3.0786768432 
3.0786768432 3.0786768432 3.0932710339 3.0932710339 3.0786768432 3.0786768432 3.0786768432 3.0786768432 3.0932710339 
3.0932710339 3.0786768432 3.0786768432 3.0786768432 3.0786768432 3.0786768432 3.0932710339 3.0932710339 3.0786768432 
3.0786768432 3.0786768432 3.0786768432 3.0932710339 3.0932710339 3.0786768432 3.0786768432 3.0786768432 3.0786768432 
3.0786768432 3.0932710339 3.0932710339 3.0786768432 3.0786768432 3.0786768432 3.0932710339 3.0932710339 3.0786768432 
3.0786768432 3.0786768432 3.0932710339 3.1078652246 3.1078652246 3.1078652246 3.1078652246 3.1078652246 3.1078652246 
3.1078652246 3.1078652246 3.0932710339 3.0786768432 3.0786768432 3.0786768432 3.0932710339 3.1078652246 3.1078652246 
3.1078652246 3.0932710339 3.0786768432 3.0786768432 3.0932710339 3.0932710339 3.1078652246 3.1078652246 3.1078652246 
3.0932710339 3.0786768432 3.0786768432 3.0786768432 3.0932710339 3.1078652246 3.1078652246 3.1078652246 3.1078652246 
3.1078652246 3.0932710339 3.0786768432 3.0786768432 3.0786768432 3.0932710339 3.1078652246 3.1078652246 3.0932710339 
3.0786768432 3.0786768432 3.0932710339 3.1078652246 3.1078652246 3.1078652246 3.1078652246 3.0932710339 3.0786768432 
3.0786768432 3.0786768432 3.0932710339 3.1078652246 3.1078652246 3.0932710339 3.0786768432 3.0786768432 3.0786768432 
3.0932710339 3.1078652246 3.1078652246 3.1078652246 3.0932710339 3.0786768432 3.0786768432 3.0932710339 3.1078652246 
3.1078652246 3.1078652246 3.0932710339 3.0786768432 3.0786768432 3.0786768432 3.0932710339 3.0932710339 3.1078652246 
3.1078652246 3.1078652246 3.1078652246 3.0932710339 3.0786768432 3.0786768432 3.0786768432 3.0932710339 3.1078652246 
3.1078652246 3.1078652246 3.0932710339 3.0786768432 3.0786768432 3.0932710339 3.1078652246 3.1078652246 3.0932710339 
3.0786768432 3.0786768432 3.0786768432 3.0932710339 3.1078652246 3.1078652246 3.1078652246 3.1078652246 3.0932710339 
3.0786768432 3.0786768432 3.0786768432 3.0932710339 3.1078652246 3.1078652246 3.1078652246 3.0932710339 3.0786768432 
3.0786768432 3.0932710339 3.1078652246 3.1078652246 3.0932710339 3.0786768432 3.0786768432 3.0786768432 3.0932710339 
3.1078652246 3.1078652246 3.1078652246 3.0932710339 3.0786768432 3.0786768432 3.0932710339 3.0932710339 3.1078652246 
3.1078652246 3.1078652246 3.0932710339 3.0786768432 3.0786768432 3.0932710339 3.1078652246 3.1078652246 3.0932710339 
3.0786768432 3.0786768432 3.0786768432 3.0932710339 3.1078652246 3.1078652246 3.0932710339 3.0786768432 3.0786768432 
3.0932710339 3.1078652246 3.1078652246 3.1078652246 3.1078652246 3.0932710339 3.0786768432 3.0786768432 3.0932710339 
3.1078652246 3.1078652246 3.0932710339 3.0786768432 3.0786768432 3.0786768432 3.0932710339 3.1078652246 3.1078652246 
3.0932710339 3.0786768432 3.0786768432 3.0786768432 3.0932710339 3.1078652246 3.1078652246 3.1078652246 3.0932710339 
3.0786768432 3.0786768432 3.0932710339 3.1078652246 3.1078652246 3.1078652246 3.0932710339 3.0786768432 3.0786768432 
3.0932710339 3.1078652246 3.1078652246 3.0932710339 3.0786768432 3.0786768432 3.0932710339 3.0932710339 3.1078652246 
3.1078652246 3.0932710339 3.0786768432 3.0786768432 3.0932710339 3.1078652246 3.1078652246 3.1078652246 3.0932710339 
3.0786768432 3.0786768432 3.0932710339 3.1078652246 3.1078652246 3.1078652246 3.0932710339 3.0786768432 3.0786768432 
3.0786768432 3.0786768432 3.0932710339 3.1078652246 3.1078652246 3.1078652246 3.0932710339 3.0786768432 3.0786768432 
3.0932710339 3.1078652246 3.1078652246 3.0932710339 3.0786768432 3.0786768432 3.0932710339 3.1078652246 3.1078652246 
3.0932710339 3.0786768432 3.0786768432 3.0932710339 3.1078652246 3.1078652246 3.1078652246 3.0932710339 3.0786768432 
3.0786768432 3.0932710339 3.1078652246 3.1078652246 3.1078652246 3.0932710339 3.0786768432 3.0786768432 3.0932710339 
3.1078652246 3.1078652246 3.0932710339 3.0786768432 3.0786768432 3.0932710339 3.0932710339 3.1078652246 3.1078652246 
3.0932710339 3.0932710339 3.0786768432 3.0786768432 3.0932710339 3.1078652246 3.1078652246 3.1078652246 3.0932710339 
3.0786768432 3.0786768432 3.0932710339 3.1078652246 3.1078652246 3.0932710339 3.0786768432 3.0786768432 3.0932710339 
3.1078652246 3.1224594153 3.1224594153 3.1224594153 3.1224594153 3.1224594153 3.1224594153 3.1078652246 3.1078652246 
3.0932710339 3.0786768432 3.0786768432 3.0932710339 3.1078652246 3.1078652246 3.1224594153 3.1224594153 3.1224594153 
3.1224594153 3.1224594153 3.1224594153 3.1078652246 3.0932710339 3.0786768432 3.0786768432 3.0786768432 3.0786768432 
3.0786768432 3.0786768432 3.0932710339 3.1078652246 3.1224594153 3.1224594153 3.1224594153 3.1224594153 3.1078652246 
3.0932710339 3.0786768432 3.0786768432 3.0786768432 3.0786768432 3.0786768432 3.0786768432 3.0786768432 3.0932710339 
3.1078652246 3.1224594153 3.1224594153 3.1224594153 3.1078652246 3.0932710339 3.0786768432 3.0786768432 3.0786768432 
3.0786768432 3.0786768432 3.0786768432 3.0786768432 3.0932710339 3.0932710339 3.1078652246 3.1078652246 3.1224594153 
3.1224594153 3.1224594153 3.1078652246 3.0932710339 3.0786768432 3.0786768432 3.0786768432 3.0786768432 3.0786768432 
3.0640826525 3.0640826525 3.0640826525 3.0640826525 3.0640826525 3.0640826525 3.0640826525 3.0786768432 3.0932710339 
3.1078652246 3.1224594153 3.1224594153 3.1224594153 3.1078652246 3.0932710339 3.0932710339 3.0786768432 3.0786768432 
3.0786768432 3.0786768432 3.0786768432 3.0640826525 3.0640826525 3.0640826525 3.0640826525 3.0786768432 3.0932710339 
3.1078652246 3.1224594153 3.1224594153 3.1224594153 3.1224594153 3.1078652246 3.0932710339 3.0786768432 3.0786768432 
3.0786768432 3.0786768432 3.0786768432 3.0786768432 3.0640826525 3.0640826525 3.0640826525 3.0786768432 3.0932710339 
3.1078652246 3.1224594153 3.1224594153 3.1078652246 3.1078652246 3.0932710339 3.0786768432 3.0786768432 3.0786768432 
3.0786768432 3.0640826525 3.0640826525 3.0640826525 3.0640826525 3.0786768432 3.0932710339 3.1078652246 3.1224594153 
3.1224594153 3.1224594153 3.1224594153 3.1078652246 3.0932710339 3.0786768432 3.0786768432 3.0786768432 3.0786768432 
3.0640826525 3.0640826525 3.0786768432 3.0932710339 3.1078652246 3.1078652246 3.1224594153 3.1224594153 3.1224594153 
3.1078652246 3.0932710339 3.0786768432 3.0786768432 3.0786768432 3.0786768432 3.0640826525 3.0640826525 3.0640826525 
3.0640826525 3.0786768432 3.0932710339 3.1078652246 3.1224594153 3.1224594153 3.1078652246 3.0932710339 3.0786768432 
3.0786768432 3.0786768432 3.0786768432 3.0640826525 3.0640826525 3.0786768432 3.0932710339 3.1078652246 3.1224594153 
3.1224594153 3.1224594153 3.1224594153 3.1078652246 3.0932710339 3.0786768432 3.0786768432 3.0786768432 3.0786768432 
3.0640826525 3.0640826525 3.0640826525 3.0786768432 3.0932710339 3.1078652246 3.1224594153 3.1224594153 3.1078652246 
3.0932710339 3.0786768432 3.0786768432 3.0786768432 3.0640826525 3.0640826525 3.0640826525 3.0786768432 3.0932710339 
3.1078652246 3.1224594153 3.1224594153 3.1224594153 3.1078652246 3.0932710339 3.0932710339 3.0786768432 3.0786768432 
3.0786768432 3.0786768432 3.0640826525 3.0640826525 3.0640826525 3.0786768432 3.0932710339 3.0932710339 3.1078652246 
3.1078652246 3.1224594153 3.1224594153 3.1078652246 3.1078652246 3.0932710339 3.0786768432 3.0786768432 3.0786768432 
3.0786768432 3.0640826525 3.0640826525 3.0640826525 3.0786768432 3.0932710339 3.1078652246 3.1224594153 3.1224594153 
3.1224594153 3.1078652246 3.0932710339 3.0786768432 3.0786768432 3.0786768432 3.0640826525 3.0640826525 3.0786768432 
3.0932710339 3.1078652246 3.1224594153 3.1224594153 3.1224594153 3.1078652246 3.0932710339 3.0786768432 3.0786768432 
3.0786768432 3.0640826525 3.0640826525 3.0786768432 3.0932710339 3.1078652246 3.1078652246 3.1224594153 3.1224594153 
3.1078652246 3.0932710339 3.0786768432 3.0786768432 3.0786768432 3.0640826525 3.0640826525 3.0786768432 3.0932710339 
3.1078652246 3.1224594153 3.1224594153 3.1224594153 3.1224594153 3.1078652246 3.0932710339 3.0786768432 3.0786768432 
3.0786768432 3.0786768432 3.0640826525 3.0640826525 3.0786768432 3.0932710339 3.1078652246 3.1224594153 3.1224594153 
3.1078652246 3.0932710339 3.0786768432 3.0786768432 3.0786768432 3.0786768432 3.0786768432 3.0640826525 3.0640826525 
3.0640826525 3.0640826525 3.0786768432 3.0932710339 3.1078652246 3.1078652246 3.1224594153 3.1224594153 3.1224594153 
3.1078652246 3.0932710339 3.0786768432 3.0786768432 3.0786768432 3.0640826525 3.0640826525 3.0786768432 3.0932710339 
3.1078652246 3.1224594153 3.137053606 3.137053606 3.137053606 3.137053606 3.1224594153 3.1078652246 3.0932710339 
3.0786768432 3.0786768432 3.0786768432 3.0786768432 3.0640826525 3.0640826525 3.0786768432 3.0932710339 3.0932710339 
3.1078652246 3.1224594153 3.137053606 3.137053606 3.137053606 3.137053606 3.1224594153 3.1078652246 3.0932710339 
3.0786768432 3.0786768432 3.0786768432 3.0640826525 3.0494884618 3.0494884618 3.0494884618 3.0494884618 3.0494884618 
3.0640826525 3.0786768432 3.0932710339 3.1078652246 3.1224594153 3.1224594153 3.137053606 3.137053606 3.137053606 
3.137053606 3.1224594153 3.1078652246 3.0932710339 3.0786768432 3.0786768432 3.0786768432 3.0640826525 3.0494884618 
3.0494884618 3.0494884618 3.0494884618 3.0640826525 3.0786768432 3.0932710339 3.1078652246 3.1078652246 3.1224594153 
3.137053606 3.137053606 3.137053606 3.1224594153 3.1078652246 3.0932710339 3.0786768432 3.0786768432 3.0786768432 
3.0640826525 3.0640826525 3.0494884618 3.0494884618 3.0494884618 3.0640826525 3.0786768432 3.0932710339 3.1078652246 
3.1224594153 3.1224594153 3.137053606 3.137053606 3.1224594153 3.1224594153 3.1078652246 3.0932710339 3.0786768432 
3.0786768432 3.0786768432 3.0786768432 3.0640826525 3.0494884618 3.0494884618 3.0494884618 3.0640826525 3.0786768432 
3.0932710339 3.1078652246 3.1224594153 3.137053606 3.137053606 3.137053606 3.137053606 3.1224594153 3.1078652246 
3.0932710339 3.0786768432 3.0786768432 3.0786768432 3.0786768432 3.0640826525 3.0494884618 3.0494884618 3.0494884618 
3.0640826525 3.0786768432 3.0932710339 3.0932710339 3.1078652246 3.1078652246 3.1224594153 3.137053606 3.137053606 
3.137053606 3.1224594153 3.1078652246 3.0932710339 3.0786768432 3.0786768432 3.0786768432 3.0640826525 3.0494884618 
3.0494884618 3.0640826525 3.0786768432 3.0932710339 3.1078652246 3.1224594153 3.137053606 3.137053606 3.1224594153 
3.1078652246 3.0932710339 3.0786768432 3.0786768432 3.0786768432 3.0786768432 3.0640826525 3.0494884618 3.0494884618 
3.0494884618 3.0494884618 3.0640826525 3.0786768432 3.0932710339 3.1078652246 3.1224594153 3.1224594153 3.137053606 
3.137053606 3.137053606 3.1224594153 3.1078652246 3.0932710339 3.0786768432 3.0786768432 3.0786768432 3.0640826525 
3.0494884618 3.0494884618 3.0640826525 3.0786768432 3.0786768432 3.0932710339 3.1078652246 3.1224594153 3.137053606 
3.137053606 3.137053606 3.1224594153 3.1078652246 3.0932710339 3.0932710339 3.0786768432 3.0786768432 3.0786768432 
3.0786768432 3.0786768432 3.0640826525 3.0494884618 3.0494884618 3.0640826525 3.0786768432 3.0932710339 3.1078652246 
3.1078652246 3.1224594153 3.137053606 3.137053606 3.137053606 3.1224594153 3.1078652246 3.0932710339 3.0786768432 
3.0786768432 3.0786768432 3.0786768432 3.0640826525 3.0494884618 3.0494884618 3.0494884618 3.0640826525 3.0786768432 
3.0932710339 3.0932710339 3.1078652246 3.1224594153 3.137053606 3.137053606 3.137053606 3.1224594153 3.1078652246 
3.0932710339 3.0786768432 3.0786768432 3.0786768432 3.0786768432 3.0786768432 3.0640826525 3.0640826525 3.0494884618 
3.0348942711 3.0348942711 3.0348942711 3.0348942711 3.0494884618 3.0640826525 3.0786768432 3.0932710339 3.1078652246 
3.1224594153 3.1224594153 3.137053606 3.137053606 3.1224594153 3.1078652246 3.0932710339 3.0786768432 3.0640826525 
3.0640826525 3.0640826525 3.0786768432 3.0786768432 3.0786768432 3.0640826525 3.0494884618 3.0348942711 3.0348942711 
3.0348942711 3.0348942711 3.0494884618 3.0494884618 3.0640826525 3.0786768432 3.0932710339 3.1078652246 3.1224594153 
3.137053606 3.137053606 3.1224594153 3.1078652246 3.0932710339 3.0786768432 3.0640826525 3.0640826525 3.0640826525 
3.0640826525 3.0640826525 3.0786768432 3.0786768432 3.0786768432 3.0786768432 3.0786768432 3.0640826525 3.0494884618 
3.0348942711 3.0348942711 3.0348942711 3.0494884618 3.0640826525 3.0786768432 3.0932710339 3.1078652246 3.1224594153 
3.137053606 3.137053606 3.137053606 3.1224594153 3.1078652246 3.0932710339 3.0786768432 3.0786768432 3.0640826525 
3.0640826525 3.0640826525 3.0786768432 3.0786768432 3.0786768432 3.0786768432 3.0786768432 3.0640826525 3.0494884618 
3.0348942711 3.0348942711 3.0348942711 3.0494884618 3.0640826525 3.0786768432 3.0932710339 3.1078652246 3.1078652246 
3.1224594153 3.137053606 3.137053606 3.1224594153 3.1078652246 3.0932710339 3.0786768432 3.0640826525 3.0640826525 
3.0640826525 3.0640826525 3.0786768432 3.0786768432 3.0786768432 3.0640826525 3.0494884618 3.0348942711 3.0348942711 
3.0494884618 3.0640826525 3.0786768432 3.0932710339 3.1078652246 3.1224594153 3.137053606 3.137053606 3.1224594153 
3.1078652246 3.0932710339 3.0786768432 3.0640826525 3.0640826525 3.0640826525 3.0786768432 3.0786768432 3.0640826525 
3.0494884618 3.0494884618 3.0348942711 3.0348942711 3.0203000804 3.0203000804 3.0203000804 3.0348942711 3.0348942711 
3.0494884618 3.0640826525 3.0786768432 3.0786768432 3.0932710339 3.1078652246 3.1224594153 2.9473291268 2.9473291268 
2.9619233175 2.9619233175 2.9765175082 2.9765175082 2.991111699 2.991111699 3.0057058897 3.0057058897 3.0203000804 
3.0203000804 3.0348942711 3.0348942711 3.0494884618 3.0494884618 3.0640826525 3.0640826525 3.0786768432 3.0786768432 
3.0932710339 3.0932710339 3.1078652246 3.1078652246 3.1224594153 3.1224594153 2.9473291268 2.9619233175 2.9765175082 
2.991111699 3.0057058897 3.0203000804 3.0348942711 3.0494884618 3.0640826525 3.0786768432 3.0932710339 3.1078652246 
3.1224594153 3.137053606 2.9473291268 2.9619233175 2.9765175082 2.991111699 3.0057058897 3.0203000804 3.0348942711 
3.0494884618 3.0640826525 3.0786768432 3.0932710339 3.1078652246 3.1224594153 3.137053606 2.9473291268 2.9619233175 
2.9765175082 2.991111699 3.0057058897 3.0203000804 3.0348942711 3.0494884618 3.0640826525 3.0786768432 3.0932710339 
3.1078652246 3.1224594153 3.137053606 2.9473291268 2.9619233175 2.9765175082 2.991111699 3.0057058897 3.0203000804 
3.0348942711 3.0494884618 3.0640826525 3.0786768432 3.0932710339 3.1078652246 3.1224594153 3.137053606 2.9473291268 
2.9619233175 2.9765175082 2.991111699 3.0057058897 3.0203000804 3.0348942711 3.0494884618 3.0640826525 3.0786768432 
3.0932710339 3.1078652246 3.1224594153 3.137053606 2.9473291268 2.9619233175 2.9765175082 2.991111699 3.0057058897 
3.0203000804 3.0348942711 3.0494884618 3.0640826525 3.0786768432 3.0932710339 3.1078652246 3.1224594153 3.137053606 
2.9473291268 2.9619233175 2.9765175082 2.991111699 3.0057058897 3.0203000804 3.0348942711 3.0494884618 3.0640826525 
3.0786768432 3.0932710339 3.1078652246 3.1224594153 3.137053606 2.9473291268 2.9619233175 2.9765175082 2.991111699 
3.0057058897 3.0203000804 3.0348942711 3.0494884618 3.0640826525 3.0786768432 3.0932710339 3.1078652246 3.1224594153 
3.137053606 2.9473291268 2.9619233175 2.9765175082 2.991111699 3.0057058897 3.0203000804 3.0348942711 3.0494884618 
3.0640826525 3.0786768432 3.0932710339 3.1078652246 3.1224594153 3.137053606 3.137053606 3.1224594153 3.1224594153 
3.1078652246 3.0932710339 3.0786768432 3.0640826525 3.0640826525 3.0786768432 3.0786768432 3.0786768432 3.0640826525 
3.0494884618 3.0348942711 3.0203000804 3.0203000804 3.0203000804 3.0203000804 3.0348942711 3.0494884618 3.0640826525 
3.0786768432 3.0932710339 3.1078652246 2.9473291268 2.9473291268 2.9619233175 2.9619233175 2.9765175082 2.9765175082 
2.991111699 2.991111699 3.0057058897 3.0057058897 3.0203000804 3.0203000804 3.0348942711 3.0348942711 3.0494884618 
3.0494884618 3.0640826525 3.0640826525 3.0786768432 3.0786768432 3.0932710339 3.0932710339 3.1078652246 3.1078652246 
2.9473291268 2.9619233175 2.9765175082 2.991111699 3.0057058897 3.0203000804 3.0348942711 3.0494884618 3.0640826525 
3.0786768432 3.0932710339 3.1078652246 2.9473291268 2.9619233175 2.9765175082 2.991111699 3.0057058897 3.0203000804 
3.0348942711 3.0494884618 3.0640826525 3.0786768432 3.0932710339 3.1078652246 2.9473291268 2.9619233175 2.9765175082 
2.991111699 3.0057058897 3.0203000804 3.0348942711 3.0494884618 3.0640826525 3.0786768432 3.0932710339 3.1078652246 
3.1224594153 2.9473291268 2.9619233175 2.9765175082 2.991111699 3.0057058897 3.0203000804 3.0348942711 3.0494884618 
3.0640826525 3.0786768432 3.0932710339 3.1078652246 3.1224594153 2.9473291268 2.9619233175 2.9765175082 2.991111699 
3.0057058897 3.0203000804 3.0348942711 3.0494884618 3.0640826525 3.0786768432 3.0932710339 3.1078652246 3.1224594153 
2.9473291268 2.9619233175 2.9765175082 2.991111699 3.0057058897 3.0203000804 3.0348942711 3.0494884618 3.0640826525 