# vtk DataFile Version 4.2
vtk output
ASCII
DATASET UNSTRUCTURED_GRID
POINTS 1740 double
2144.07 -94.44003 0 2911 0 0 16.54298 -37.82236 0 
5.09149 -21.30132 0 1.27433 -10.75385 0 0 0 0 
2.54575 15.14293 0 6.36291 23.76126 0 14.00014 34.89063 0 
30.50239 50.70793 0 33.39435 -52.93479 0 2050.91 -103.7862 0 
60.1465 -69.72165 0 88.83633 -83.2817 0 118.7656 -94.71113 0 
153.4168 -105.7022 0 199.5806 -117.771 0 261.4466 -130.7139 0 
345.846 -144.1892 0 460.3522 -157.0592 0 608.4185 -167.1903 0 
783.2313 -172.4016 0 941.0559 -172.4533 0 1063.409 -170.1096 0 
1164.153 -166.8746 0 1263.449 -162.682 0 1375.468 -156.8941 0 
1513.293 -148.414 0 1665.281 -137.5317 0 1791.864 -127.3721 0 
2195.451 -89.09491 0 2273.924 -80.67077 0 2383.731 -68.3513 0 
2517.64 -52.47337 0 2649.227 -35.9232 0 2740.773 -23.82991 0 
2804.387 -15.13419 0 2848.802 -8.916218 0 2881.944 -4.196067 0 
56.61447 67.79801 0 84.09687 81.25172 0 112.4783 92.48395 0 
142.1748 102.3504 0 174.8563 111.6168 0 213.124 120.8806 0 
260.3759 130.5151 0 324.6539 141.1779 0 418.1422 152.9178 0 
535.6656 162.9871 0 690.9154 170.4255 0 902.6513 172.7852 0 
1100.32 169.0517 0 1270.99 162.3262 0 1462.794 151.6837 0 
1631.287 140.0952 0 1747.993 131 0 1922.788 115.9027 0 
2069.56 101.951 0 2128.804 96.0021 0 2297.147 78.11721 0 
2414.379 64.80104 0 2554.023 47.99319 0 2673.693 32.73885 0 
2757.97 21.50315 0 2814.297 13.7575 0 2852.02 8.460961 0 
2882.272 4.148909 0 1791.052 127.4402 0 1366.894 157.3738 0 
1444.38 -152.8302 0 1547.039 146.1296 0 1589.287 -143.1614 0 
1878.731 119.8675 0 1997.072 108.9828 0 1185.654 166.0472 0 
1882.536 -119.5292 0 1971.323 -111.4145 0 1684.777 136.0292 0 
2099.317 -98.9855 0 2234.809 84.9091 0 2181.695 90.53914 0 
1728.573 -132.5703 0 1718.815 133.3509 0 1834.825 123.7132 0 
1960.305 112.4444 0 2033.69 105.4648 0 2099.184 98.99892 0 
2214.291 -65.507872286 396.8421 2955.512 21.423091362 396.8421 158.0786 -16.562580374 396.8421 
147.0109 -0.70293327595 396.8421 143.3217 9.4523034909 396.8421 142.09 19.828924128 396.8421 
144.5505 34.478348357 396.8421 148.2398 42.836275099 396.8421 155.621 53.652593582 396.8421 
171.5701 69.072503928 396.8421 174.3652 -31.016165268 396.8421 2124.254 -74.248257839 396.8421 
200.2206 -47.005480891 396.8421 227.9488 -59.86566505 396.8421 256.8748 -70.662211466 396.8421 
290.3647 -81.00292239 396.8421 334.981 -92.30294557 396.8421 394.7733 -104.34377491 396.8421 
476.3434 -116.76442671 396.8421 587.0114 -128.45044836 396.8421 730.1145 -137.37973564 396.8421 
899.0676 -141.55877161 396.8421 1051.602 -140.98364775 396.8421 1169.853 -138.33153457 396.8421 
1267.221 -134.95039019 396.8421 1363.188 -130.7041838 396.8421 1471.452 -124.9588009 396.8421 
1604.657 -116.67541754 396.8421 1751.55 -106.18787582 396.8421 1873.891 -96.495399322 396.8421 
2263.949 -60.524899226 396.8421 2339.792 -52.692336189 396.8421 2445.918 -41.279001743 396.8421 
2575.338 -26.630551289 396.8421 2702.515 -11.423249824 396.8421 2790.992 -0.34400156455 396.8421 
2852.473 7.6080349468 396.8421 2895.4 13.287576133 396.8421 2927.431 17.595630036 396.8421 
196.807 85.801045327 396.8421 223.3682 99.024509186 396.8421 250.7983 110.10530223 396.8421 
279.4994 119.87276457 396.8421 311.0855 129.0789531 396.8421 348.0705 138.31885362 396.8421 
393.7383 147.97442545 396.8421 455.8617 158.72962423 396.8421 546.2162 170.69211811 396.8421 
659.8003 181.13341015 396.8421 809.846 189.14753109 396.8421 1014.485 192.34390066 396.8421 
1205.528 189.36947986 396.8421 1370.477 183.24301488 396.8421 1555.851 173.1827021 396.8421 
1718.696 162.00891026 396.8421 1831.49 153.14204308 396.8421 2000.426 138.2896334 396.8421 
2142.278 124.4495567 396.8421 2199.537 118.52085626 396.8421 2362.236 100.6138978 396.8421 
2475.539 87.212556033 396.8421 2610.501 70.2285722 396.8421 2726.16 54.75924762 396.8421 
2807.613 43.337168392 396.8421 2862.05 35.451053311 396.8421 2898.509 30.053379722 396.8421 
2927.749 25.65615941 396.8421 1873.106 149.65360286 396.8421 1463.165 178.59519575 396.8421 
1538.054 -120.97377153 396.8421 1637.272 167.84804961 396.8421 1678.104 -111.59726418 396.8421 
1957.846 142.20400582 396.8421 2072.22 131.43722231 396.8421 1288 186.67272471 396.8421 
1961.524 -89.063074165 396.8421 2047.334 -81.411059046 396.8421 1770.393 158.05386287 396.8421 
2171.038 -69.75420857 396.8421 2301.989 107.42770897 396.8421 2250.655 113.06366385 396.8421 
1812.721 -101.44446608 396.8421 1803.29 155.44054434 396.8421 1915.411 145.99174304 396.8421 
2036.686 134.86809903 396.8421 2107.61 127.94418358 396.8421 2170.909 121.50941395 396.8421 
2284.511 -41.646422778 793.6842 3000.027 39.84581468 793.6842 299.6143 -0.17667459589 793.6842 
288.9304 15.042017532 793.6842 285.3691 24.809954446 793.6842 284.1801 34.808208763 793.6842 
286.5551 48.95223956 793.6842 290.1167 57.037432893 793.6842 297.2417 67.518405814 793.6842 
312.6379 82.496466875 793.6842 315.336 -14.004442752 793.6842 2197.597 -49.957341912 793.6842 
340.2947 -29.250157535 793.6842 367.0612 -41.468278214 793.6842 394.9839 -51.691311209 793.6842 
427.3123 -61.448749906 793.6842 470.3812 -72.066382254 793.6842 528.0998 -83.314862208 793.6842 
606.8411 -94.818870034 793.6842 713.6708 -105.48603909 793.6842 851.8104 -113.38825848 793.6842 
1014.904 -116.68499164 793.6842 1162.147 -115.56616093 793.6842 1276.298 -112.63578531 793.6842 
1370.288 -109.11098302 793.6842 1462.927 -104.79382106 793.6842 1567.436 -99.048310552 793.6842 
1696.021 -90.874950153 793.6842 1837.82 -80.643567078 793.6842 1955.917 -71.268473836 793.6842 
2332.447 -36.921305125 793.6842 2405.659 -29.511362444 793.6842 2508.105 -18.748299763 793.6842 
2633.037 -4.9867168754 793.6842 2755.801 9.246974992 793.6842 2841.209 19.587933556 793.6842 
2900.561 26.99692443 793.6842 2941.997 32.282600924 793.6842 2972.917 36.288744972 793.6842 
336.9995 98.797266382 793.6842 362.6396 111.72419574 793.6842 389.1182 122.58775497 793.6842 
416.8239 132.19007088 793.6842 447.3145 141.26600307 793.6842 483.0167 150.40348441 793.6842 
527.1009 159.98814443 793.6842 587.0697 170.71933784 793.6842 674.2905 182.7526503 793.6842 
783.9349 193.40374278 793.6842 928.7766 201.82669955 793.6842 1126.317 205.7177845 793.6842 
1310.735 203.45700619 793.6842 1469.963 197.95653966 793.6842 1648.908 188.58049858 793.6842 
1806.105 177.9732789 793.6842 1914.987 169.47309106 793.6842 2078.064 155.12334968 793.6842 
2214.996 141.65751891 793.6842 2270.269 135.86675744 793.6842 2427.326 118.30892269 793.6842 
2536.699 105.11257354 793.6842 2666.98 88.331660613 793.6842 2778.628 73.0009897 793.6842 
2857.255 61.657264143 793.6842 2909.806 53.814777009 793.6842 2945.001 48.44249122 793.6842 
2973.224 44.0634622 793.6842 1955.16 166.11382531 793.6842 1559.437 193.65490437 793.6842 
1631.729 -95.103414726 793.6842 1727.505 183.5340591 793.6842 1766.921 -85.907577887 793.6842 
2036.96 158.91656594 793.6842 2147.368 148.46598894 793.6842 1390.347 201.07387256 793.6842 
2040.511 -64.120307291 793.6842 2123.346 -56.792051262 793.6842 1856.009 174.18916837 793.6842 
2242.759 -45.6803245 793.6842 2369.167 125.00091369 793.6842 2319.614 130.52610676 793.6842 
1896.869 -76.047261796 793.6842 1887.765 171.68213738 793.6842 1995.998 162.57983199 793.6842 
2113.066 151.80181653 793.6842 2181.531 145.06489071 793.6842 2242.634 138.78730779 793.6842 
2354.732 -22.522043619 1190.526 3044.539 55.011157281 1190.526 441.15 12.112646451 1190.526 
430.8497 26.709425 1190.526 427.4164 36.095368078 1190.526 426.2701 45.715479204 1190.526 
428.5601 59.345757866 1190.526 431.9934 67.148731646 1190.526 438.8627 77.276816094 1190.526 
453.7057 91.7771323 1190.526 456.3069 -1.1190171136 1190.526 2270.94 -30.52059513 1190.526 
480.3688 -15.668841507 1190.526 506.1737 -27.295765326 1190.526 533.0934 -36.997562338 1190.526 
564.26 -46.230982429 1190.526 605.7815 -56.242761848 1190.526 661.4265 -66.796815093 1190.526 
737.3385 -77.509254737 1190.526 840.33 -87.310407937 1190.526 973.5064 -94.354445043 1190.526 
1130.74 -96.926046697 1190.526 1272.693 -95.365339852 1190.526 1382.742 -92.209633495 1190.526 
1473.356 -88.567661414 1190.526 1562.666 -84.190352082 1190.526 1663.42 -78.438528072 1190.526 
1787.385 -70.341428386 1190.526 1924.09 -60.294886022 1190.526 2037.944 -51.150620896 1190.526 
2400.946 -17.98437258 1190.526 2471.527 -10.88166654 1190.526 2570.292 -0.59120069426 1190.526 
2690.735 12.525695613 1190.526 2809.091 26.051020464 1190.526 2891.43 35.854329973 1190.526 
2948.647 42.867502615 1190.526 2988.597 47.865772196 1190.526 3018.403 51.651566516 1190.526 
477.1918 107.59596423 1190.526 501.9109 120.17136084 1190.526 527.4382 130.76269257 1190.526 
554.1485 140.14398607 1190.526 583.5435 149.03004266 1190.526 617.963 157.99793915 1190.526 
660.4633 167.43213861 1190.526 718.2775 178.03720157 1190.526 802.3645 190.00517607 1190.526 
908.0698 200.71514452 1190.526 1047.707 209.38185592 1190.526 1238.151 213.80537593 1190.526 
1415.942 212.17173545 1190.526 1569.449 207.27287771 1190.526 1741.965 198.60955506 1190.526 
1893.514 188.64235076 1190.526 1998.484 180.58631306 1190.526 2155.702 166.8959767 1190.526 
2287.714 153.97365582 1190.526 2341.001 148.39892007 1190.526 2492.415 131.4426955 1190.526 
2597.858 118.65394672 1190.526 2723.46 102.3459704 1190.526 2831.095 87.410009602 1190.526 
2906.899 76.338639299 1190.526 2957.56 68.6758321 1190.526 2991.49 63.422848747 1190.526 
3018.699 59.138931813 1190.526 2037.214 177.39040192 1190.526 1655.708 203.32433985 1190.526 
1725.403 -74.520493534 1190.526 1817.738 193.88237612 1190.526 1855.738 -65.453637509 1190.526 
2116.075 170.52402819 1190.526 2222.516 160.51505418 1190.526 1492.694 210.08424925 1190.526 
2119.498 -44.209280471 1190.526 2199.357 -37.116596313 1190.526 1941.625 185.0618828 1190.526 
2314.479 -26.401452376 1190.526 2436.346 137.91410953 1190.526 2388.573 143.24931878 1190.526 
1981.017 -55.805357863 1190.526 1972.24 182.68439527 1190.526 2076.584 174.02185666 1190.526 
[...]
POINT_DATA 1740
FIELD FieldData 1
Pressure 1 1740 double
3.1031868375 3.0187259908 3.0094037457 2.9863946186 2.9752724173 2.9517381741 2.9678376214 2.9860388144 3.0180645211 
3.0307732363 3.0124407863 3.1068114635 3.0367130724 3.0509727935 3.0675663479 3.0663128532 3.0831044017 3.0878459571 
3.1088987227 3.1129072531 3.1310202619 3.1391989409 3.1405425754 3.1449994615 3.1395125942 3.1352215184 3.1320606926 
3.1282856135 3.122144574 3.1171066677 3.1003937861 3.0974527368 3.0917579896 3.084244987 3.0733275292 3.0638630213 
3.0533063451 3.0454677678 3.034867721 3.0667971897 3.0796663454 3.0920964881 3.1046701121 3.1090848785 3.1187924466 
3.1258190483 3.1342185092 3.1506439508 3.1642558184 3.1802815242 3.1920812639 3.1994963316 3.2061414038 3.2121061479 
3.2164165826 3.2193815502 3.2206693761 3.2266844598 3.1232175352 3.0874409651 3.0830236611 3.0734208454 3.0636118799 
3.0538293493 3.0433175305 3.0365993374 3.0345197586 3.2195114803 3.2095231971 3.1308591615 3.2133536431 3.1252853469 
3.2202990237 3.2210895146 3.2061581478 3.1132986316 3.1098694088 3.2170926948 3.1050469316 3.0945939676 3.1001627172 
3.1195911024 3.2185380823 3.2204508165 3.2216674174 3.2221799522 3.2378666032 3.0997162675 3.0234210609 3.0259621987 
2.9986575237 3.0058120189 2.9840057147 2.9947734882 3.0078007456 3.0344447026 3.05244725 3.0371772022 3.1037551269 
3.0566905505 3.0694232452 3.0827720737 3.0861082136 3.1018425171 3.1103662602 3.1237741669 3.1287692696 3.1383734115 
3.1421567601 3.1440068766 3.143660958 3.1387919838 3.134164873 3.1289411681 3.1246566358 3.1192105313 3.1140555221 
3.0973605882 3.0936498589 3.0879443778 3.0805968843 3.0696286744 3.0602134605 3.0502133317 3.043198092 3.0254740777 
3.0850937562 3.10522088 3.1165436091 3.1255929588 3.1341795076 3.1395089578 3.1449540007 3.1547084125 3.1675456341 
3.1782693477 3.1872603546 3.1956673011 3.2025634342 3.2094544697 3.2131718341 3.2164714401 3.2192460425 3.2222551096 
3.2083780812 3.084306482 3.0922066134 3.0856804414 3.0768813382 3.0665152629 3.0566459394 3.0457697827 3.0396482657 
3.0409434478 3.2200357485 3.2116302833 3.1277801039 3.2152888827 3.1217269895 3.22139797 3.2228905017 3.2077746722 
3.1102079132 3.1066825673 3.2176390076 3.1020693283 3.092337046 3.0867529059 3.1169549494 3.2184823597 3.2207230071 
3.2230948777 3.2231940254 3.1227572012 3.0971122829 3.0228671558 3.0274857119 3.0010990049 3.0020208238 2.9827972125 
2.9973113924 3.010061028 3.0379786214 3.0589067344 3.0452413913 3.1012426504 3.059872886 3.078957334 3.0968611952 
3.102558495 3.1157857525 3.1238229735 3.1355498767 3.1403479253 3.14779782 3.1493504012 3.1474609968 3.1443781336 
3.1377070021 3.1322689615 3.1269871812 3.1218467498 3.116607911 3.1117294183 3.0949093747 3.0912797709 3.0856190345 
3.0782395499 3.0672686998 3.0576458514 3.0483217046 3.0414833178 3.0277282383 3.0905856096 3.1125567644 3.1306690305 
3.1400962461 3.1542182921 3.1611329853 3.1706188558 3.1748807401 3.1838518321 3.1942594191 3.1995284004 3.2057275072 
3.2090799151 3.2163319629 3.2194491606 3.2206498212 3.2229028328 3.2251718093 3.083522051 3.0854537692 3.086401202 
3.0822032869 3.0749895871 3.0651282553 3.0559536376 3.0459676023 3.0390138637 3.0411135521 3.2233753541 3.2176317513 
3.1250338883 3.2204439158 3.1190217822 3.2242955904 3.2250971983 3.2134989885 3.107944225 3.1041871786 3.2212299142 
3.099639265 3.0883003964 3.0878358413 3.1142235244 3.2217429928 3.2239917521 3.2256101401 3.2211982006 3.0845244906 
3.0952711837 3.0234076183 3.0284942632 3.0010910858 3.0024960079 2.9810965223 2.9920725041 3.0058424085 3.0383645097 
3.0593004789 3.0459600771 3.0991391216 3.0663494386 3.0837833434 3.1030190088 3.1109449409 3.1235996219 3.1311472671 
3.1428415515 3.1487682017 3.1542596123 3.1533360262 3.1493649269 3.1445709175 3.1371163727 3.1315359959 3.1258570665 
3.1201775566 3.1145194321 3.1095595001 3.0929958994 3.08937048 3.08413925 3.0766797317 3.0663008056 3.0564991469 
3.0479496353 3.0408892785 3.0291805359 3.0937215295 3.1172688664 3.1329550716 3.1455881139 3.1518095816 3.1637079482 
3.1767575136 3.1849125595 3.1933347805 3.205124509 3.2112463974 3.2160320877 3.2181093616 3.2248778249 3.2271663602 
3.2277595518 3.2294061775 3.2309591216 3.0866511143 3.0895319977 3.087876233 3.0834096731 3.0756856173 3.0656774823 
3.0560919349 3.046815472 3.0392744612 3.0419249398 3.2294794558 3.2260184836 3.1235792995 3.2279688658 3.1171771857 
3.2300831733 3.2244483206 3.2220831566 3.1059462792 3.1022512268 3.2282306652 3.0974092974 3.0891290245 3.0890453814 
3.1118434237 3.2284443783 3.2299598786 3.2305381707 3.0860681369 3.0877519587 3.0936063792 3.0244745373 3.0306805709 
3.0019192882 3.0056498715 2.9846643284 2.9939517264 3.0066004552 3.0400517035 3.0605594738 3.0475319604 3.0975078726 
3.0692713746 3.0867617936 3.1039728975 3.1133786201 3.1261240537 3.1363038172 3.1462111348 3.1528324186 3.1577998697 
3.1553121796 3.149859689 3.1435838918 3.1357328401 3.129976574 3.1240884761 3.1185172197 3.1127663008 3.107584944 
3.0914612395 3.0877880424 3.0829021695 3.0754915482 3.0654927244 3.0559009541 3.0476975831 3.0403971026 3.029793564 
3.0949268005 3.1187420813 3.1338746117 3.1468506233 3.1566906112 3.1674638139 3.1788896873 3.1847706386 3.1960171002 
3.2095452721 3.2194211234 3.223373146 3.2263996062 3.2328323239 3.2345784206 3.2349292585 3.2364046391 3.2373888593 
3.0909224022 3.0898832778 3.0900248454 3.0855137632 3.078231584 3.0680282621 3.0583053549 3.0491245818 3.0413517322 
3.0432524838 3.2365567607 3.2339283647 3.1219758066 3.2352284045 3.1155700212 3.2369291442 3.1135845354 3.23019524 
3.1041582554 3.1006082686 3.2354481747 3.0955657328 3.0914017839 3.0910025035 3.1099550786 3.2357021882 3.2367833483 
3.2343323973 3.0883057436 3.0893804694 3.0923464433 3.0249105193 3.0316229827 3.0024496455 3.0064441049 2.9855910105 
2.9950725147 3.0080093393 3.0407276758 3.0624311744 3.0493192979 3.096063109 3.0710476606 3.0893332863 3.1054018789 
3.1153286382 3.1281555074 3.1391301369 3.1494809172 3.1571535709 3.160573046 3.1567376789 3.1496977659 3.1422160935 
3.1342996398 3.1283828095 3.122421471 3.1168993364 3.1111648803 3.1060792847 3.0901164348 3.0864660937 3.0817796077 
3.0744270383 3.0647133266 3.0551089046 3.0471521462 3.0397502849 3.0299561683 3.0961660915 3.1203996258 3.1351048903 
3.1480630042 3.1574183278 3.1690433085 3.1816906258 3.1890122985 3.2005070966 3.2137153083 3.2252033089 3.231257273 
3.2341237207 3.240813098 3.2426809903 3.2423848135 3.2432672364 3.2431040385 3.0896143165 3.0912648971 3.0909252653 
3.0863817737 3.0793727334 3.0692914845 3.0597276807 3.0505826466 3.0426304585 3.0445234078 3.2433113318 3.2417023033 
3.1203882097 3.2429583143 3.1139448207 3.2436473465 3.0777749071 3.2378931252 3.1026946475 3.0992469403 3.2426163312 
3.0939953168 3.0926653157 3.0920931776 3.1083235802 3.2427621376 3.243402376 3.2448993588 3.0855513904 3.0905519881 
3.0913348376 3.0239944852 3.031860489 3.0026353203 3.0057933446 2.9855117318 2.9948667178 3.0083134902 3.0408020098 
3.0630153324 3.0500926929 3.0950252082 3.0718777773 3.0907573059 3.1066094563 3.117048382 3.1298298188 3.1416896325 
3.1514171458 3.1594292635 3.1626459529 3.1575781088 3.1492727659 3.1409817007 3.1332917502 3.1272304586 3.1212079587 
3.1154546939 3.1099956418 3.1049278093 3.0890653862 3.0855199372 3.0809362805 3.0736624902 3.0641114283 3.0544686467 
3.0466091069 3.0391260093 3.0299688318 3.0967701329 3.1211382188 3.136005329 3.1489069124 3.1586844276 3.1702882449 
3.1826864444 3.1909239698 3.2028274384 3.2168289335 3.2289991727 3.2366048296 3.2409726399 3.2480112913 3.2497692557 
3.2499694394 3.2503492019 3.250404029 3.088403942 3.0897204259 3.0881649503 3.0834437909 3.0767068394 3.0672753048 
3.058080804 3.0491675826 3.0411421406 3.0435469103 3.2502285868 3.2497839546 3.1191003453 3.2503298671 3.1126638288 
3.2509288886 3.0916866342 3.2449242462 3.101568163 3.0982369574 3.2498522443 3.0930054856 3.089913212 3.0892291177 
3.1071966667 3.2499346505 3.2508258227 3.1879540126 3.0904608547 3.0887231545 3.0907130461 3.0223206507 3.0321300038 
3.0027991187 3.0057701861 2.9859281744 2.9947844792 3.0084886349 3.0410720404 3.0632779287 3.0504837902 3.0943149518 
3.0723684014 3.0912595118 3.1070046765 3.1179010493 3.130684404 3.1432302476 3.1525981504 3.1608329178 3.1640929172 
3.1581057627 3.1488953038 3.1402028363 3.13286184 3.1265060356 3.1207159311 3.1143692888 3.1094066114 3.1043663048 
3.0885208971 3.0851260542 3.0805575946 3.0733684287 3.0638528533 3.0540878658 3.0462882882 3.0388136368 3.0301788883 
3.0971801044 3.1216256004 3.1367025222 3.1496137627 3.1594724806 3.1711251803 3.1834680032 3.1924719936 3.204693685 
3.2187743655 3.2315592983 3.240728239 3.2460818086 3.2539981291 3.2573800975 3.256853274 3.2573158893 3.2585503924 
3.0824466889 3.084373972 3.0829227146 3.0783996673 3.0719107786 3.0630489303 3.0541879587 3.0457318026 3.0378483387 
3.0406682933 3.2580064507 3.2558563997 3.1181065473 3.2572470852 3.1119275863 3.258386915 3.0771972883 3.2502723592 
3.10099123 3.0977496746 3.2570148641 3.0923610677 3.0842435258 3.08296447 3.1066834764 3.2570604557 3.2584329187 
3.0894913291 3.08162883 3.0826135905 3.0906028997 3.0213410416 3.0324055944 3.0029680471 3.0062164589 2.9864459796 
2.9949553921 3.0088446776 3.0415409027 3.0637242338 3.0505703953 3.0943006146 3.0724991462 3.0915097483 3.1069553376 
3.1182697026 3.130998371 3.1440697196 3.1532867093 3.1615095731 3.1652031829 3.1586262218 3.1488611802 3.1400102404 
3.1330069133 3.1263973314 3.1207097716 3.1143941725 3.1094107935 3.1043088987 3.0885605606 3.0851517548 3.080574237 
3.073459648 3.0639032511 3.0542169706 3.0463668457 3.0389133987 3.0301754212 3.0978318463 3.1222167652 3.1374642753 
3.1504603388 3.1604001106 3.1721054779 3.1843105694 3.1937781689 3.2063558011 3.2204191071 3.2335210816 3.2435631934 
3.2497493224 3.2581647834 3.262160264 3.2630719711 3.2639352175 3.2740114015 3.0791288309 3.0793437162 3.0788435015 
3.0746873067 3.0684240366 3.059614509 3.0508790117 3.0427927456 3.0351745985 3.0380388716 3.2640773986 3.2607165287 
3.1181370166 3.2631753482 3.1118974593 3.2646927507 3.0753618918 3.254179601 3.1009433178 3.0977235366 3.2632067934 
3.0922403009 3.0801313633 3.0790682362 3.1066567746 3.2633001159 3.2644543318 3.0788610652 3.0768862435 3.0787296633 
3.0909810797 3.0212896293 3.03275248 3.0032294397 3.0071212052 2.9869851349 2.9953098401 3.0093154808 3.0421482624 
3.0643635418 3.0503552716 3.0948004219 3.072213714 3.0912628914 3.1068122914 3.1184403468 3.1311473196 3.1445271317 
3.1534908983 3.1621034699 3.1660160445 3.1591891317 3.1492623976 3.1403296299 3.1335876903 3.1268988996 3.121269626 
3.11483968 3.1098439948 3.1047196739 3.0889883485 3.085593417 3.0809085259 3.0738468266 3.0642288323 3.0545869608 
3.0466796415 3.0392693183 3.0300758998 3.0987554484 3.1230082913 3.1385415701 3.1516274209 3.1615963209 3.1733664547 
3.185465699 3.1952594377 3.2081644096 3.2220784409 3.2353580097 3.2458601034 3.2523673683 3.2612885661 3.2659658704 
3.2674414182 3.2683148398 3.2813670011 3.0776647564 3.0776796326 3.0765768563 3.0726761013 3.0666584707 3.0578034945 
3.0492126963 3.0412862378 3.0340587756 3.0367881855 3.268782654 3.2640598254 3.1185889084 3.2670699606 3.112390899 
3.26942994 3.0769847028 3.2568761431 3.1013278887 3.0978771193 3.2678517066 3.0927584816 3.0777518757 3.0772791348 
3.10718549 3.2679281108 3.2696505369 3.0807037826 3.074388943 3.0774789131 3.0918634381 3.0218063842 3.0330849081 
3.0034567096 3.0083060717 2.9876371981 2.9958619791 3.0098912116 3.0429168318 3.0651501375 3.0497553965 3.0958439916 
3.0715723224 3.0906463085 3.1062812581 3.118177239 3.1307251394 3.1443302113 3.1532508627 3.1618703572 3.1666412405 
3.1598730602 3.1501264371 3.1412370632 3.1346685118 3.1278895538 3.1222979137 3.1157950519 3.110843559 3.1056564795 
3.0898512038 3.0864188823 3.0815942531 3.0745416685 3.0648192562 3.0551711847 3.0471506057 3.0398026642 3.0300653559 
3.0998837076 3.1240521545 3.1399199946 3.1531081411 3.1631213633 3.1749399153 3.186964226 3.197000233 3.2101948719 
3.2239164383 3.2373007667 3.2480300776 3.2545774085 3.2637258905 3.2688345824 3.2707387248 3.2717753022 3.2864634158 
3.0751561452 3.0756120696 3.0747468503 3.0711059081 3.0654231974 3.0565991646 3.0482252005 3.040424452 3.0335880756 
3.036175092 3.2724440881 3.2667342564 3.1195452487 3.2701336573 3.1133216809 3.2731827998 3.0741331164 3.2590157384 
3.1021630718 3.098854234 3.2711710106 3.0937407416 3.0758713868 3.075528524 3.1082355928 3.2713686398 3.2733053739 
3.0813422924 3.0716740144 3.075362635 3.0929724919 3.0221908333 3.0334739372 3.0036438703 3.0093536486 2.9882238009 
2.996479132 3.0104860949 3.0437282789 3.0660249903 3.0489795857 3.0969748101 3.0707165785 3.0896611855 3.1054655893 
3.1175719968 3.130042578 3.1435806212 3.1529755397 3.1614603061 3.167100551 3.1607286815 3.1514095884 3.1426193338 
3.1361150582 3.1292304424 3.1236417484 3.1170913656 3.1121502396 3.1068804245 3.0909089055 3.0874266304 3.0824836714 
3.0753800043 3.0655497447 3.0558514974 3.0477052858 3.0404107213 3.0301795622 3.1011780983 3.1253505957 3.141582043 
3.1548848848 3.1649244749 3.1767955496 3.1888021751 3.1990026517 3.2124670911 3.2260551615 3.2394623574 3.2502758683 
3.2567297364 3.2657988291 3.2712794146 3.2733899116 3.2744743123 3.292884524 3.0737030101 3.0739247249 3.0731637533 
3.0697081385 3.064027434 3.0552047276 3.047002312 3.0392592578 3.0327882799 3.0352537949 3.2752402083 3.2690166913 
3.120828115 3.2725429424 3.1145817448 3.2763617575 3.0716125672 3.2610438159 3.1033110456 3.0999021758 3.2737806836 
3.094935748 3.0741821407 3.0738502618 3.1095488001 3.2740229784 3.2760089152 3.0829353922 3.0702968411 3.0737801051 
3.0940440789 3.0221951275 3.0338149349 3.0037610471 3.010179837 2.9888756694 2.9971194769 3.0111133132 3.0445242801 
3.0669837783 3.0479087572 3.098040718 3.0695653115 3.0883955949 3.1044118432 3.1166640156 3.1290314484 3.1426045388 
3.1523323573 3.1616423548 3.1674598982 3.1617395708 3.1529910887 3.1442296102 3.1376910029 3.1306906699 3.1250655011 
3.1185559703 3.1133794189 3.1081225775 3.0919302631 3.0883901897 3.08335111 3.0761509804 3.0662293006 3.0564765984 
3.0482201167 3.0409497399 3.0303099983 3.1026589564 3.126915687 3.1435048882 3.1569489175 3.1670148366 3.1789217719 
3.1909595758 3.2012918707 3.2150507863 3.2284947522 3.2418432906 3.2526911474 3.2590223756 3.2678958446 3.2736429205 
3.2758524363 3.2768264205 3.282538064 3.0728273249 3.0723011878 3.0711083724 3.0674616746 3.0614814105 3.0530008979 
3.0450338231 3.0373374456 3.0312940748 3.0336736671 3.2776729573 3.271241987 3.1222418227 3.2748460003 3.1158499871 
3.2789187143 3.0720827573 3.2631817748 3.1043267048 3.1008802017 3.2761518233 3.0960348114 3.0723558564 3.0722143371 
3.1107867556 3.2763852345 3.2787975213 3.0739354687 3.0720380761 3.0727848972 3.0950321984 3.022236901 3.0341700507 
3.0038879078 3.0106456193 2.9895100651 2.9980237487 3.0119714407 3.0455311378 3.0681018949 3.0466151536 3.0990166958 
3.0682517177 3.0870481357 3.1029355912 3.1151174059 3.1276850161 3.1411129349 3.1517793702 3.1609164674 3.1674305171 
3.1626518662 3.1545992848 3.1458866655 3.139233998 3.1321076644 3.1263851716 3.1199210478 3.1145742506 3.109255613 
3.092871931 3.0892753033 3.08413179 3.0768329226 3.0668172729 3.0569994113 3.0486414652 3.041378949 3.0303596614 
3.104393229 3.128822623 3.1456125193 3.1592319033 3.169327182 3.1812628927 3.1934157418 3.2038271853 3.217917252 
3.2311569385 3.2444577738 3.2552245 3.2614808426 3.2701420816 3.2760582565 3.2783418138 3.2792117477 3.1814715949 
3.0692111332 3.0693572661 3.0681514436 3.0646754652 3.0586967103 3.0507484554 3.0430296794 3.035517068 3.0299237133 
3.0322809564 3.2801862582 3.2735208659 3.1236378896 3.2772235178 3.117133927 3.2786470963 3.0689295912 3.2655018963 
3.1054218448 3.1018617368 3.2786064879 3.097047332 3.0693447834 3.0695603825 3.1119419252 3.2788053911 3.2807286295 
3.0720161617 3.0689209852 3.0694823973 3.0959625849 3.0227279893 3.0345061109 3.004093349 3.0106596192 2.9901635387 
2.9992729462 3.0131024143 3.0467874935 3.0693526274 3.0452973404 3.099993994 3.0667869478 3.0856531613 3.1010027446 
3.1130391892 3.1259119162 3.1391884408 3.1509952285 3.1604050293 3.1675904306 3.1639044706 3.1565704139 3.1478492079 
3.1408446745 3.1335093243 3.1275406827 3.1212169248 3.1156178618 3.110328289 3.0937582498 3.0901318839 3.084906672 
3.0774968324 3.0673610196 3.057437028 3.048981258 3.0416679198 3.0302247473 3.1061364903 3.1309212931 3.1476026407 
3.1614310192 3.1716056059 3.1834863866 3.1959222906 3.2063876698 3.2206918874 3.2338239375 3.2469569918 3.2578520919 
3.2641157089 3.2725904958 3.2788401648 3.2814058566 3.2824125596 3.0753295502 3.0685013957 3.0684088888 3.0676179058 
3.0643113564 3.0585870526 3.0507546419 3.0431015142 3.0358892487 3.0304796332 3.0326364147 3.2828767869 3.2760549824 
3.1249450866 3.2799759503 3.1184143107 3.2864640763 3.0677328675 3.2680462515 3.1065227952 3.1028844833 3.281459519 
3.0980189115 3.0689579322 3.0691222686 3.1130112377 3.2818157692 3.2842952057 3.068999645 3.0685871778 3.0683605649 
3.0968149317 3.0237312673 3.0330185992 3.0036319113 3.0107255443 2.9901875189 3.0005881959 3.0141441154 3.0468164817 
3.0701879104 3.0434190852 3.1008588555 3.0646486775 3.083609089 3.0991039044 3.1113271336 3.1242040293 3.1367913843 
3.1504895148 3.159346519 3.1680134292 3.1657939579 3.1591508466 3.1502503681 3.1426152116 3.1349889616 3.128726799 
3.1224734594 3.1169993683 3.1114985508 3.0946076757 3.090831404 3.0856135856 3.0780221329 3.0677432277 3.0576162158 
3.0491059565 3.0416258559 3.0294030492 3.1074591715 3.1327684293 3.1492902627 3.1630729614 3.1733705334 3.1855532362 
3.1981520588 3.2086955308 3.2230672469 3.2365166053 3.2500698321 3.2605362309 3.2671766069 3.2758515316 3.2831876144 
3.2852492546 3.2852957356 3.0699568462 3.0724530243 3.0722237368 3.0709406617 3.0673275175 3.061784436 3.0537278152 
3.0460209049 3.0384872538 3.0330400039 3.0350152654 3.2859173725 3.2796842698 3.1262865284 3.2842846055 3.1195997357 
3.2947539368 3.071148486 3.2710932089 3.1078033916 3.1038713125 3.285386028 3.0988622661 3.072409456 3.0725729416 
3.1141874658 3.2855804865 3.2960028852 3.0694382943 3.0717967277 3.0724260682 3.0974190629 3.0244169448 3.0311828301 
3.0016530911 3.0073065626 2.9883715294 3.0005726622 3.0144472232 3.0480572953 3.0711049288 3.0412094277 3.1016272096 
3.063252278 3.0818315432 3.0983408764 3.1097402304 3.1228900885 3.1343419392 3.1508228485 3.1600276878 3.1698182474 
3.1700060618 3.1627596202 3.1532507693 3.1442408195 3.1362841574 3.1295780429 3.1230913459 3.1174162568 3.1124220581 
3.0953395829 3.0913505241 3.0861366709 3.0785318512 3.0679377485 3.0574874411 3.0488635978 3.0410903777 3.0279591988 
3.1094186278 3.1346063481 3.1512611123 3.1658123606 3.1759511888 3.1881204084 3.2005658345 3.2117200684 3.2272384818 
3.2410916753 3.254583135 3.2680858052 3.2724085944 3.2804937208 3.2862945985 3.2868865743 3.2847393082 3.0675877051 
3.075357848 3.0745782123 3.0751852008 3.0718733396 3.0659865118 3.0573656401 3.0498582168 3.0422884359 3.0363173166 
3.038866584 3.287841459 3.2839935438 3.1268576938 3.2863218867 3.120159275 3.0551074183 3.0730076096 3.275890583 
3.1081618996 3.1044971661 3.2858657662 3.0995397918 3.0759779684 3.0757819531 3.1152060518 3.2852312381 3.1711475681 
3.0702015441 3.0740374291 3.0751156839 3.0976025165 3.0274727595 3.0326266285 3.0045895698 3.0088243904 2.9905368537 
3.0048968215 3.0188665702 3.0568159349 3.0758041863 3.0438198135 3.100529203 3.0611647915 3.0806931613 3.0972117256 
3.1107018726 3.123781926 3.1354094743 3.1546129378 3.1743543506 3.1764921021 3.1747567307 3.1656474042 3.1536874762 
3.1435151157 3.1355476973 3.1283305885 3.1218353223 3.1155931895 3.1104750566 3.0944754258 3.0919288735 3.086673305 
3.0774207017 3.0681173446 3.0569514518 3.0480204923 3.039262701 3.0268081898 3.110610689 3.1366647721 3.1581041762 
3.17249853 3.1815755913 3.1991425249 3.2079710252 3.21830993 3.2360942576 3.2485930325 3.2648388152 3.2732288467 