# vtk DataFile Version 4.2
vtk output
ASCII
DATASET POLYDATA
POINTS 6595 float
2568.34 -2496.1 5800 2580.9 -2500.01 5800 2609.9 -2509.03 5800 
2638.9 -2499.41 5800 2642.37 -2496.1 5800 2526.55 -2483.1 5800 
2551.9 -2490.99 5800 2656.02 -2483.1 5800 2487.63 -2470.1 5800 
2493.9 -2472.94 5800 2522.9 -2481.97 5800 2667.9 -2471.79 5800 
2669.68 -2470.1 5800 2458.28 -2457.1 5800 2464.9 -2462.28 5800 
2683.33 -2457.1 5800 2442.25 -2444.1 5800 2696.91 -2444.17 5800 
2696.98 -2444.09 5800 2424.45 -2431.1 5800 2435.9 -2439.97 5800 
2711.11 -2431.09 5800 2407.68 -2418.1 5800 2725.91 -2418.46 5800 
2726.36 -2418.09 5800 2390.91 -2405.1 5800 2406.9 -2417.5 5800 
2742.27 -2405.09 5800 2373.97 -2392.1 5800 2377.9 -2395.02 5800 
2754.91 -2394.77 5800 2758.19 -2392.09 5800 2355.32 -2379.1 5800 
2774.1 -2379.09 5800 2333.85 -2366.1 5800 2348.9 -2374.92 5800 
2783.91 -2371.07 5800 2790.02 -2366.09 5800 2311.68 -2353.1 5800 
2319.9 -2357.92 5800 2805.93 -2353.08 5800 2292.18 -2340.1 5800 
2812.92 -2347.38 5800 2821.85 -2340.08 5800 2275 -2327.1 5800 
2290.9 -2339.14 5800 2837.76 -2327.08 5800 2257.83 -2314.1 5800 
2261.9 -2317.18 5800 2841.92 -2323.68 5800 2853.68 -2314.08 5800 
2240.65 -2301.1 5800 2869.59 -2301.08 5800 2223.48 -2288.1 5800 
2232.9 -2295.23 5800 2870.92 -2299.99 5800 2885.51 -2288.08 5800 
2206.31 -2275.1 5800 2899.93 -2276.3 5800 2901.42 -2275.07 5800 
2189.13 -2262.1 5800 2203.9 -2273.28 5800 2917.33 -2262.07 5800 
2174.06 -2249.1 5800 2174.9 -2251.33 5800 2928.93 -2252.6 5800 
2933.26 -2249.07 5800 2174.27 -2236.1 5800 2949.16 -2236.07 5800 
2174.9 -2224.8 5800 2175.05 -2223.1 5800 2957.93 -2228.91 5800 
2964.2 -2223.07 5800 2175.9 -2210.09 5800 2978.59 -2210.07 5800 
2176.47 -2197.09 5800 2986.93 -2202.77 5800 2993.05 -2197.07 5800 
2177.2 -2184.09 5800 3006.99 -2184.06 5800 2177.93 -2171.09 5800 
3015.94 -2175.73 5800 3020.94 -2171.06 5800 2178.66 -2158.09 5800 
3034.88 -2158.06 5800 2179.4 -2145.09 5800 3044 -2145.06 5800 
2180.13 -2132.09 5800 3044.94 -2133.68 5800 3045.02 -2132.06 5800 
2180.86 -2119.09 5800 3045.69 -2119.06 5800 2181.59 -2106.09 5800 
3046.35 -2106.06 5800 2182.33 -2093.09 5800 3047.02 -2093.06 5800 
2183.06 -2080.08 5800 3047.68 -2080.05 5800 2183.79 -2067.08 5800 
3048.16 -2067.05 5800 2184.12 -2054.08 5800 3048.39 -2054.05 5800 
2181.74 -2041.08 5800 3048.56 -2041.05 5800 2179.51 -2028.08 5800 
3048.73 -2028.05 5800 2177.27 -2015.08 5800 3048.9 -2015.05 5800 
2175.03 -2002.08 5800 3049.07 -2002.05 5800 2172.8 -1989.08 5800 
2174.92 -2001.43 5800 3049.23 -1989.05 5800 2170.56 -1976.08 5800 
3049.4 -1976.05 5800 2168.32 -1963.08 5800 3049.57 -1963.05 5800 
2166.09 -1950.08 5800 3049.74 -1950.04 5800 2163.85 -1937.07 5800 
3049.9 -1937.04 5800 2161.62 -1924.07 5800 3050.07 -1924.04 5800 
2159.38 -1911.07 5800 3050.24 -1911.04 5800 2157.14 -1898.07 5800 
3050.41 -1898.04 5800 2154.91 -1885.07 5800 3050.57 -1885.04 5800 
2152.67 -1872.07 5800 3050.74 -1872.04 5800 2150.43 -1859.07 5800 
3050.91 -1859.04 5800 2148.2 -1846.07 5800 3051.07 -1846.04 5800 
2145.96 -1833.07 5800 3051.24 -1833.04 5800 2143.73 -1820.07 5800 
2145.93 -1832.9 5800 3051.41 -1820.03 5800 2141.49 -1807.07 5800 
3051.58 -1807.03 5800 2139.25 -1794.06 5800 3051.74 -1794.03 5800 
2137.02 -1781.06 5800 3051.91 -1781.03 5800 2134.78 -1768.06 5800 
3052.08 -1768.03 5800 2132.55 -1755.06 5800 3052.25 -1755.03 5800 
2130.31 -1742.06 5800 3052.41 -1742.03 5800 2128.07 -1729.06 5800 
3052.58 -1729.03 5800 2125.75 -1716.06 5800 3062.4 -1716.03 5800 
2123.42 -1703.06 5800 3069.06 -1703.03 5800 2121.08 -1690.06 5800 
3073.98 -1696.9 5800 3079.94 -1690.02 5800 2118.74 -1677.06 5800 
3089.92 -1677.02 5800 2116.41 -1664.06 5800 2116.94 -1667.06 5800 
3100.35 -1664.02 5800 2114.07 -1651.05 5800 3102.98 -1660.74 5800 
3110.78 -1651.02 5800 2111.73 -1638.05 5800 3121.2 -1638.02 5800 
2109.4 -1625.05 5800 3131.63 -1625.02 5800 2107.06 -1612.05 5800 
3131.98 -1624.58 5800 3142.06 -1612.02 5800 2104.72 -1599.05 5800 
3152.49 -1599.01 5800 2102.39 -1586.05 5800 3160.99 -1588.42 5800 
3162.92 -1586.01 5800 2100.05 -1573.05 5800 3173.34 -1573.01 5800 
2101.1 -1560.05 5800 3183.77 -1560.01 5800 2103.4 -1547.05 5800 
3189.99 -1552.26 5800 3194.08 -1547.01 5800 2104.81 -1534.05 5800 
3201.65 -1534.01 5800 2108.8 -1521.04 5800 3207.32 -1521.01 5800 
2112.55 -1508.04 5800 3212.98 -1508.01 5800 2114.41 -1495.04 5800 
3218.65 -1495 5800 2116.21 -1482.04 5800 3219 -1494.21 5800 
3222.5 -1482 5800 2116.96 -1476.6 5800 2117.49 -1469.04 5800 
3225.49 -1469 5800 2118.3 -1456.04 5800 3228.03 -1456 5800 
2117.45 -1443.04 5800 3228.38 -1443 5800 2116.24 -1430.04 5800 
2116.96 -1436.09 5800 3228.73 -1430 5800 2114.9 -1417.04 5800 
3229.08 -1417 5800 2113.79 -1404.04 5800 3229.44 -1404 5800 
2112.85 -1391.03 5800 3229.79 -1391 5800 2112.06 -1378.03 5800 
3230.14 -1377.99 5800 2111.36 -1365.03 5800 3230.49 -1364.99 5800 
2110.76 -1352.03 5800 3230.84 -1351.99 5800 2110.12 -1339.03 5800 
3231.19 -1338.99 5800 2109.23 -1326.03 5800 3231.54 -1325.99 5800 
2108.36 -1313.03 5800 3231.89 -1312.99 5800 2107.49 -1300.03 5800 
3232.24 -1299.99 5800 2106.64 -1287.03 5800 3232.6 -1286.99 5800 
2105.79 -1274.03 5800 3233.06 -1273.99 5800 2105.03 -1261.02 5800 
3233.52 -1260.99 5800 2104.27 -1248.02 5800 3233.97 -1247.98 5800 
2103.51 -1235.02 5800 3234.41 -1234.98 5800 2102.76 -1222.02 5800 
3234.85 -1221.98 5800 2102 -1209.02 5800 3235.28 -1208.98 5800 
2101.24 -1196.02 5800 3235.71 -1195.98 5800 2100.48 -1183.02 5800 
3236.13 -1182.98 5800 2099.72 -1170.02 5800 3236.59 -1169.98 5800 
2098.96 -1157.02 5800 3237.13 -1156.98 5800 2098.21 -1144.02 5800 
3237.67 -1143.98 5800 2097.45 -1131.01 5800 3238.2 -1130.98 5800 
2096.69 -1118.01 5800 3238.74 -1117.97 5800 2095.93 -1105.01 5800 
3239.27 -1104.97 5800 2095.17 -1092.01 5800 3239.97 -1091.97 5800 
2094.02 -1079.01 5800 3240.87 -1078.97 5800 2090.77 -1066.01 5800 
3241.77 -1065.97 5800 2087.53 -1053.01 5800 2087.99 -1054.87 5800 
3242.73 -1052.97 5800 2084.28 -1040.01 5800 3243.69 -1039.97 5800 
2081.18 -1027.01 5800 3244.67 -1026.97 5800 2079.84 -1014.01 5800 
3245.66 -1013.97 5800 2078.92 -1001.01 5800 3246.64 -1000.97 5800 
2080.04 -988.004 5800 3247.63 -987.964 5800 2082.24 -975.003 5800 
3248.04 -982.602 5800 3248.62 -974.963 5800 2084.44 -962.002 5800 
3249.6 -961.962 5800 2086.63 -949.001 5800 3250.59 -948.961 5800 
2088 -940.919 5800 2088.82 -936 5800 3251.58 -935.96 5800 
2090.98 -922.999 5800 3252.56 -922.959 5800 2093.16 -909.998 5800 
3253.26 -909.958 5800 2095.34 -896.997 5800 3253.39 -896.957 5800 
2097.53 -883.996 5800 3253.48 -883.956 5800 2099.73 -870.995 5800 
2579.71 -870.978 5800 2581.02 -871.389 5800 2582.25 -870.978 5800 
3252.14 -870.955 5800 2101.94 -857.994 5800 2546.06 -857.978 5800 
2552.02 -861.951 5800 2610.02 -861.707 5800 2620.73 -857.976 5800 
3249.63 -857.954 5800 2104.16 -844.992 5800 2526.55 -844.978 5800 
2639.03 -851.619 5800 2655.42 -844.973 5800 3248.05 -849.771 5800 
3247.09 -844.953 5800 2106.39 -831.991 5800 2509.04 -831.977 5800 
2523.02 -842.626 5800 2668.03 -839.864 5800 2689.53 -831.971 5800 
3244.61 -831.952 5800 2108.61 -818.99 5800 2492.2 -818.977 5800 
2494.02 -820.472 5800 2697.03 -828.961 5800 2726.03 -828.587 5800 
2735.39 -818.969 5800 3242.1 -818.951 5800 2110.8 -805.989 5800 
2476.32 -805.977 5800 2745.98 -805.967 5800 3239.59 -805.95 5800 
2112.99 -792.988 5800 2458.76 -792.976 5800 2465.02 -796.721 5800 
2754.74 -792.966 5800 3236.76 -792.949 5800 2115.18 -779.987 5800 
2433.41 -779.976 5800 2436.02 -783.093 5800 2755.03 -792.685 5800 
2767.64 -779.965 5800 3233.56 -779.948 5800 2117.01 -769.244 5800 
2117.34 -766.986 5800 2424.9 -766.975 5800 2781.39 -766.963 5800 
3230.36 -766.948 5800 2117.91 -753.985 5800 2417.08 -753.975 5800 
2784.04 -764.462 5800 2795.14 -753.962 5800 3229.18 -753.947 5800 
2116.22 -740.984 5800 2117.02 -746.905 5800 2409.27 -740.974 5800 
2808.89 -740.96 5800 3228.23 -740.946 5800 2114.34 -727.983 5800 
2400.75 -727.973 5800 2407.03 -737.236 5800 2813.04 -737.179 5800 
2824.29 -727.959 5800 3227.42 -727.945 5800 2112.47 -714.982 5800 
2392.84 -714.972 5800 2840.28 -714.957 5800 3226.74 -714.944 5800 
2110.62 -701.981 5800 2385.8 -701.972 5800 2842.04 -713.525 5800 
2855.32 -701.956 5800 3226.27 -701.943 5800 2108.95 -688.98 5800 
2377.92 -688.971 5800 2378.03 -689.109 5800 2865.8 -688.954 5800 
3226.22 -688.942 5800 2108.57 -675.979 5800 2367.95 -675.97 5800 
2871.05 -680.434 5800 2872.88 -675.953 5800 3226.18 -675.941 5800 
2111.33 -662.978 5800 2359.29 -662.97 5800 2878.19 -662.952 5800 
3226.12 -662.94 5800 2114.21 -649.977 5800 2351.71 -649.969 5800 
2883.55 -649.951 5800 3226.07 -649.939 5800 2117.02 -637.441 5800 
2117.12 -636.976 5800 2345.48 -636.968 5800 2349.03 -644.951 5800 
2889.04 -636.949 5800 3226.01 -636.938 5800 2119.82 -623.975 5800 
2339.92 -623.967 5800 2894.62 -623.948 5800 3225.96 -623.937 5800 
2122.44 -610.974 5800 2333.46 -610.967 5800 2900.05 -611.524 5800 
2900.31 -610.947 5800 3225.9 -610.936 5800 2125.1 -597.973 5800 
2329.04 -597.966 5800 2906.1 -597.946 5800 3225.85 -597.935 5800 
2127.79 -584.972 5800 2322.35 -584.965 5800 2913.49 -584.945 5800 
3225.79 -584.934 5800 2130.28 -571.971 5800 2315.23 -571.964 5800 
2320.04 -580.663 5800 2921.89 -571.943 5800 3225.74 -571.933 5800 
2130.06 -558.97 5800 2308.64 -558.963 5800 2929.06 -560.859 5800 
2930.15 -558.942 5800 3227.36 -558.932 5800 2130.06 -545.969 5800 
2301.83 -545.963 5800 2937.33 -545.941 5800 3229.1 -545.931 5800 
2130.07 -532.968 5800 2295.24 -532.962 5800 2944.23 -532.94 5800 
3230.85 -532.93 5800 2128.14 -519.967 5800 2288.66 -519.961 5800 
2291.04 -524.535 5800 2557.94 -519.952 5800 2581.05 -526.346 5800 
2594.01 -519.951 5800 2950.54 -519.938 5800 3232.59 -519.929 5800 
2125.96 -506.966 5800 2281.9 -506.96 5800 2507.7 -506.953 5800 
2523.05 -510.288 5800 2552.05 -518.544 5800 2610.05 -511.36 5800 
2617.94 -506.949 5800 2956.65 -506.937 5800 3234.34 -506.927 5800 
3625.09 -515.117 5800 3600.01 -506.915 5800 3652.14 -506.913 5800 
[...]
POINT_DATA 6595
SCALARS Pressure double
LOOKUP_TABLE default
3.0932710339 3.0932710339 3.0932710339 3.0932710339 3.0932710339 3.0932710339 3.0932710339 3.0932710339 3.0932710339 
3.0932710339 3.0932710339 3.0932710339 3.0932710339 3.0932710339 3.0932710339 3.0932710339 3.0932710339 3.0932710339 
3.0932710339 3.0932710339 3.0932710339 3.0932710339 3.0932710339 3.0932710339 3.0932710339 3.0932710339 3.0932710339 
3.0932710339 3.0932710339 3.0932710339 3.0932710339 3.0932710339 3.0932710339 3.0932710339 3.0932710339 3.0932710339 
3.0932710339 3.0932710339 3.0932710339 3.0932710339 3.0932710339 3.0932710339 3.0932710339 3.0932710339 3.0932710339 
3.0932710339 3.0932710339 3.0932710339 3.0932710339 3.0932710339 3.0932710339 3.0932710339 3.0932710339 3.0932710339 
3.0932710339 3.0932710339 3.0932710339 3.0932710339 3.0932710339 3.0932710339 3.0932710339 3.0932710339 3.0932710339 
3.0932710339 3.0932710339 3.0932710339 3.0932710339 3.0932710339 3.0932710339 3.0932710339 3.0932710339 3.0932710339 
3.0932710339 3.0932710339 3.0932710339 3.0932710339 3.0932710339 3.0932710339 3.0932710339 3.0932710339 3.0932710339 
3.0932710339 3.0932710339 3.0932710339 3.0932710339 3.0932710339 3.0932710339 3.0932710339 3.0932710339 3.0932710339 
3.0932710339 3.0932710339 3.0932710339 3.0932710339 3.0932710339 3.0932710339 3.0932710339 3.0932710339 3.0932710339 
3.0932710339 3.0932710339 3.0932710339 3.0932710339 3.0932710339 3.0932710339 3.0932710339 3.0932710339 3.0932710339 
3.0932710339 3.0932710339 3.0932710339 3.0932710339 3.0932710339 3.0932710339 3.0932710339 3.0932710339 3.0932710339 
3.0932710339 3.0932710339 3.0932710339 3.0932710339 3.0932710339 3.0932710339 3.0932710339 3.0932710339 3.0932710339 
3.0932710339 3.0932710339 3.0932710339 3.0932710339 3.0932710339 3.0932710339 3.0932710339 3.0932710339 3.0932710339 
3.0932710339 3.0932710339 3.0932710339 3.0932710339 3.0932710339 3.0932710339 3.0932710339 3.0932710339 3.0932710339 
3.0932710339 3.0932710339 3.0932710339 3.0932710339 3.0932710339 3.0932710339 3.0932710339 3.0932710339 3.0932710339 
3.0932710339 3.0932710339 3.0932710339 3.0932710339 3.0932710339 3.0932710339 3.0932710339 3.0932710339 3.0932710339 
3.0932710339 3.0932710339 3.0932710339 3.0932710339 3.0932710339 3.0932710339 3.0932710339 3.0932710339 3.0932710339 
3.0932710339 3.0932710339 3.0932710339 3.0932710339 3.0932710339 3.0932710339 3.0932710339 3.0932710339 3.0932710339 
3.0932710339 3.0932710339 3.0932710339 3.0932710339 3.0932710339 3.0932710339 3.0932710339 3.0932710339 3.0932710339 
3.0932710339 3.0932710339 3.0932710339 3.0932710339 3.0932710339 3.0932710339 3.0932710339 3.0932710339 3.0932710339 
3.0932710339 3.0932710339 3.0932710339 3.0932710339 3.0932710339 3.0932710339 3.0932710339 3.0932710339 3.0932710339 
3.0932710339 3.0932710339 3.0932710339 3.0932710339 3.0932710339 3.0932710339 3.0932710339 3.0932710339 3.0932710339 
3.0932710339 3.0932710339 3.0932710339 3.0932710339 3.0932710339 3.0932710339 3.0932710339 3.0932710339 3.0932710339 
3.0932710339 3.0932710339 3.0932710339 3.0932710339 3.0932710339 3.0932710339 3.0932710339 3.0932710339 3.0932710339 
3.0932710339 3.0932710339 3.0932710339 3.0932710339 3.0932710339 3.0932710339 3.0932710339 3.0932710339 3.0932710339 
3.0932710339 3.0932710339 3.0932710339 3.0932710339 3.0932710339 3.0932710339 3.0932710339 3.0932710339 3.0932710339 
3.0932710339 3.0932710339 3.0932710339 3.0932710339 3.0932710339 3.0932710339 3.0932710339 3.0932710339 3.0932710339 
3.0932710339 3.0932710339 3.0932710339 3.0932710339 3.0932710339 3.0932710339 3.0932710339 3.0932710339 3.0932710339 
3.0932710339 3.0932710339 3.0932710339 3.0932710339 3.0932710339 3.0932710339 3.0932710339 3.0932710339 3.0932710339 
3.0932710339 3.0932710339 3.0932710339 3.0932710339 3.0932710339 3.0932710339 3.0932710339 3.0932710339 3.0932710339 
3.0932710339 3.0932710339 3.0932710339 3.0932710339 3.0932710339 3.0932710339 3.0932710339 3.0932710339 3.0932710339 
3.1078652246 3.1078652246 3.1078652246 3.0932710339 3.0932710339 3.1078652246 3.1078652246 3.1078652246 3.1078652246 
3.0932710339 3.0932710339 3.1078652246 3.1078652246 3.1078652246 3.0932710339 3.0932710339 3.0932710339 3.1078652246 
3.1078652246 3.1078652246 3.1078652246 3.0932710339 3.0932710339 3.1078652246 3.1078652246 3.1078652246 3.1078652246 
3.1078652246 3.0932710339 3.0932710339 3.1078652246 3.1078652246 3.0932710339 3.0932710339 3.1078652246 3.1078652246 
3.1078652246 3.0932710339 3.0932710339 3.1078652246 3.1078652246 3.1078652246 3.1078652246 3.0932710339 3.0932710339 
3.0932710339 3.1078652246 3.1078652246 3.0932710339 3.0932710339 3.1078652246 3.1078652246 3.1078652246 3.0932710339 
3.0932710339 3.0932710339 3.1078652246 3.1078652246 3.0932710339 3.0932710339 3.1078652246 3.1078652246 3.1078652246 
3.1078652246 3.0932710339 3.0932710339 3.1078652246 3.1078652246 3.0932710339 3.0932710339 3.1078652246 3.1078652246 
3.1078652246 3.0932710339 3.0932710339 3.1078652246 3.1078652246 3.1078652246 3.0932710339 3.0932710339 3.1078652246 
3.1078652246 3.1078652246 3.0932710339 3.0932710339 3.1078652246 3.1078652246 3.0932710339 3.0932710339 3.1078652246 
3.1078652246 3.0932710339 3.0932710339 3.0932710339 3.1078652246 3.1078652246 3.1078652246 3.0932710339 3.0932710339 
3.1078652246 3.1078652246 3.0932710339 3.0932710339 3.1078652246 3.1078652246 3.1078652246 3.0932710339 3.0932710339 
3.1078652246 3.1078652246 3.0932710339 3.0932710339 3.1078652246 3.1078652246 3.0932710339 3.0932710339 3.1078652246 
3.1078652246 3.1078652246 3.0932710339 3.0932710339 3.1078652246 3.1078652246 3.1078652246 3.0932710339 3.0932710339 
3.1078652246 3.1078652246 3.0932710339 3.0932710339 3.1078652246 3.1078652246 3.0932710339 3.0932710339 3.1078652246 
3.1078652246 3.1224594153 3.1224594153 3.1224594153 3.1078652246 3.0932710339 3.0932710339 3.1078652246 3.1224594153 
3.1224594153 3.1224594153 3.1224594153 3.1224594153 3.1078652246 3.0932710339 3.0786768432 3.0786768432 3.0786768432 
3.0786768432 3.0786768432 3.0786768432 3.0786768432 3.0786768432 3.0932710339 3.1078652246 3.1224594153 3.1224594153 
3.1224594153 3.1224594153 3.1224594153 3.1078652246 3.1078652246 3.0932710339 3.0786768432 3.0786768432 3.0786768432 
3.0786768432 3.0786768432 3.0786768432 3.0786768432 3.0786768432 3.0786768432 3.0786768432 3.0786768432 3.0786768432 
3.0786768432 3.0786768432 3.0932710339 3.1078652246 3.1224594153 3.1224594153 3.1078652246 3.0932710339 3.0786768432 
3.0786768432 3.0786768432 3.0786768432 3.0786768432 3.0932710339 3.1078652246 3.1224594153 3.1224594153 3.1224594153 
3.1224594153 3.1078652246 3.0932710339 3.0786768432 3.0786768432 3.0786768432 3.0786768432 3.0786768432 3.0786768432 
3.0786768432 3.0932710339 3.1078652246 3.1224594153 3.1224594153 3.1224594153 3.1078652246 3.0932710339 3.0786768432 
3.0786768432 3.0786768432 3.0786768432 3.0932710339 3.1078652246 3.1078652246 3.1224594153 3.1224594153 3.1078652246 
3.1078652246 3.0932710339 3.0786768432 3.0786768432 3.0786768432 3.0786768432 3.0786768432 3.0786768432 3.0786768432 
3.0932710339 3.1078652246 3.1224594153 3.1224594153 3.1224594153 3.1224594153 3.1078652246 3.0932710339 3.0786768432 
3.0786768432 3.0786768432 3.0786768432 3.0786768432 3.0932710339 3.1078652246 3.1224594153 3.1224594153 3.1078652246 
3.0932710339 3.0786768432 3.0786768432 3.0786768432 3.0786768432 3.0932710339 3.1078652246 3.1224594153 3.1224594153 
3.1224594153 3.1078652246 3.0932710339 3.0786768432 3.0786768432 3.0786768432 3.0786768432 3.0786768432 3.0786768432 
3.0932710339 3.1078652246 3.1224594153 3.1224594153 3.1224594153 3.1078652246 3.0932710339 3.0932710339 3.0786768432 
3.0786768432 3.0786768432 3.0786768432 3.0786768432 3.0786768432 3.0786768432 3.0932710339 3.0932710339 3.1078652246 
3.1224594153 3.1224594153 3.1078652246 3.1078652246 3.0932710339 3.0786768432 3.0786768432 3.0786768432 3.0786768432 
3.0786768432 3.0786768432 3.0932710339 3.1078652246 3.1224594153 3.1224594153 3.1224594153 3.1224594153 3.1078652246 
3.0932710339 3.0786768432 3.0786768432 3.0786768432 3.0786768432 3.0786768432 3.0932710339 3.1078652246 3.1224594153 
3.1224594153 3.1078652246 3.0932710339 3.0786768432 3.0786768432 3.0786768432 3.0786768432 3.0786768432 3.0932710339 
3.1078652246 3.1224594153 3.1224594153 3.1078652246 3.0932710339 3.0786768432 3.0786768432 3.0786768432 3.0786768432 
3.0786768432 3.0786768432 3.0932710339 3.1078652246 3.1224594153 3.137053606 3.137053606 3.137053606 3.137053606 
3.1224594153 3.1224594153 3.1078652246 3.0932710339 3.0786768432 3.0786768432 3.0786768432 3.0786768432 3.0786768432 
3.0932710339 3.1078652246 3.1224594153 3.1224594153 3.137053606 3.137053606 3.137053606 3.137053606 3.1224594153 
3.1078652246 3.0932710339 3.0786768432 3.0786768432 3.0786768432 3.0786768432 3.0786768432 3.0932710339 3.1078652246 
3.1078652246 3.1224594153 3.137053606 3.137053606 3.137053606 3.137053606 3.1224594153 3.1078652246 3.1078652246 
3.0932710339 3.0786768432 3.0786768432 3.0786768432 3.0786768432 3.0932710339 3.1078652246 3.1224594153 3.137053606 
3.137053606 3.137053606 3.1224594153 3.1078652246 3.0932710339 3.0786768432 3.0786768432 3.0786768432 3.0786768432 
3.0786768432 3.0786768432 3.0932710339 3.1078652246 3.1224594153 3.137053606 3.137053606 3.137053606 3.137053606 
3.1224594153 3.1078652246 3.0932710339 3.0786768432 3.0786768432 3.0786768432 3.0786768432 3.0932710339 3.1078652246 
3.1224594153 3.1224594153 3.137053606 3.137053606 3.1224594153 3.1224594153 3.1078652246 3.0932710339 3.0786768432 
3.0786768432 3.0786768432 3.0786768432 3.0786768432 3.0932710339 3.1078652246 3.1224594153 3.137053606 3.137053606 
3.1224594153 3.1078652246 3.0932710339 3.0786768432 3.0786768432 3.0786768432 3.0786768432 3.0932710339 3.1078652246 
3.1224594153 3.137053606 3.137053606 3.137053606 3.137053606 3.1224594153 3.1078652246 3.0932710339 3.0786768432 
3.0786768432 3.0786768432 3.0786768432 3.0786768432 3.0932710339 3.1078652246 3.1224594153 3.137053606 3.137053606 
3.1224594153 3.1078652246 3.0932710339 3.0786768432 3.0786768432 3.0786768432 3.0786768432 3.0786768432 3.0932710339 
3.1078652246 3.1224594153 3.137053606 3.137053606 3.137053606 3.1224594153 3.1078652246 3.0932710339 3.0786768432 
3.0786768432 3.0786768432 3.0786768432 3.0640826525 3.0640826525 3.0640826525 3.0640826525 3.0640826525 3.0640826525 
3.0786768432 3.0932710339 3.1078652246 3.1224594153 3.1224594153 3.137053606 3.137053606 3.1224594153 3.1078652246 
3.0932710339 3.0786768432 3.0786768432 3.0786768432 3.0786768432 3.0640826525 3.0640826525 3.0640826525 3.0640826525 
3.0640826525 3.0786768432 3.0932710339 3.1078652246 3.1078652246 3.1224594153 3.137053606 3.1516477967 3.1516477967 
3.1516477967 3.137053606 3.137053606 3.1224594153 3.1224594153 3.1078652246 3.0932710339 3.0786768432 3.0786768432 
3.0786768432 3.0640826525 3.0640826525 3.0640826525 3.0786768432 3.0932710339 3.1078652246 3.1224594153 3.137053606 
3.137053606 3.1516477967 3.1516477967 3.1516477967 3.1516477967 3.1516477967 3.137053606 3.1224594153 3.1078652246 
3.0932710339 3.0786768432 3.0786768432 3.0786768432 3.0786768432 3.0640826525 3.0640826525 3.0640826525 3.0786768432 
3.0932710339 3.1078652246 3.1224594153 3.137053606 3.137053606 3.1516477967 3.1516477967 3.1516477967 3.1516477967 
3.137053606 3.1224594153 3.1078652246 3.0932710339 3.0786768432 3.0786768432 3.0786768432 3.0786768432 3.0640826525 
3.0640826525 3.0640826525 3.0786768432 3.0932710339 3.1078652246 3.1224594153 3.137053606 3.1516477967 3.1516477967 
3.1516477967 3.137053606 3.1224594153 3.1078652246 3.0932710339 3.0786768432 3.0786768432 3.0786768432 3.0640826525 
3.0640826525 3.0786768432 3.0932710339 3.1078652246 3.1224594153 3.1224594153 3.137053606 3.1516477967 3.1516477967 
3.1516477967 3.137053606 3.1224594153 3.1078652246 3.0932710339 3.0786768432 3.0786768432 3.0786768432 3.0786768432 
3.0786768432 3.0786768432 3.0786768432 3.0786768432 3.0786768432 3.0786768432 3.0640826525 3.0640826525 3.0786768432 
3.0786768432 3.0932710339 3.1078652246 3.1224594153 3.137053606 3.1516477967 3.1516477967 3.1516477967 3.137053606 
3.1224594153 3.1078652246 3.0932710339 3.0932710339 3.0786768432 3.0786768432 3.0786768432 3.0786768432 3.0640826525 
3.0494884618 3.0494884618 3.0494884618 3.0494884618 3.0640826525 3.0786768432 3.0932710339 3.1078652246 3.1224594153 
3.137053606 3.137053606 3.1516477967 3.1516477967 3.137053606 3.1224594153 3.1078652246 3.0932710339 3.0786768432 
3.0786768432 3.0786768432 3.0640826525 3.0640826525 3.0494884618 3.0494884618 3.0494884618 3.0494884618 3.0640826525 
3.0640826525 3.0786768432 3.0932710339 3.1078652246 3.1224594153 3.137053606 3.1516477967 3.1516477967 3.1516477967 
3.137053606 3.1224594153 3.1078652246 3.0932710339 3.0786768432 3.0640826525 3.0640826525 3.0640826525 3.0786768432 
3.0786768432 3.0786768432 3.0786768432 3.0640826525 3.0494884618 3.0494884618 3.0494884618 3.0640826525 3.0786768432 
3.0932710339 3.1078652246 3.1078652246 3.1224594153 3.1224594153 3.137053606 3.1516477967 3.1516477967 3.137053606 
3.1224594153 3.1224594153 3.1078652246 3.0932710339 3.0786768432 3.0786768432 3.0640826525 3.0640826525 3.0640826525 
3.0640826525 3.0786768432 3.0786768432 3.0640826525 3.0494884618 3.0494884618 3.0494884618 3.0640826525 3.0786768432 
3.0932710339 3.0932710339 3.1078652246 3.1224594153 3.137053606 3.1516477967 3.1516477967 3.1516477967 3.137053606 
3.1224594153 3.1078652246 3.0932710339 3.0786768432 3.0640826525 3.0640826525 3.0640826525 3.0640826525 3.0786768432 
3.0786768432 3.0786768432 3.0786768432 3.0640826525 3.0494884618 3.0348942711 3.0348942711 3.0348942711 3.0494884618 
3.0640826525 3.0786768432 3.0932710339 3.1078652246 3.1224594153 3.137053606 3.137053606 3.1516477967 3.1516477967 
3.137053606 3.1224594153 3.1078652246 3.0932710339 3.0786768432 3.0640826525 3.0640826525 3.0640826525 3.0786768432 
3.0786768432 3.0786768432 3.0640826525 3.0494884618 3.0348942711 3.0348942711 3.0348942711 3.0348942711 3.0494884618 
3.0494884618 3.0640826525 3.0786768432 3.0932710339 3.1078652246 3.1224594153 3.137053606 2.9473291268 2.9473291268 
2.9619233175 2.9619233175 2.9765175082 2.9765175082 2.991111699 2.991111699 3.0057058897 3.0057058897 3.0203000804 
3.0203000804 3.0348942711 3.0348942711 3.0494884618 3.0494884618 3.0640826525 3.0640826525 3.0786768432 3.0786768432 
3.0932710339 3.0932710339 3.1078652246 3.1078652246 3.1224594153 3.1224594153 3.137053606 3.137053606 2.9473291268 
2.9619233175 2.9765175082 2.991111699 3.0057058897 3.0203000804 3.0348942711 3.0494884618 3.0640826525 3.0786768432 
3.0932710339 3.1078652246 3.1224594153 3.137053606 3.1516477967 2.9473291268 2.9619233175 2.9765175082 2.991111699 
3.0057058897 3.0203000804 3.0348942711 3.0494884618 3.0640826525 3.0786768432 3.0932710339 3.1078652246 3.1224594153 
3.137053606 3.1516477967 2.9473291268 2.9619233175 2.9765175082 2.991111699 3.0057058897 3.0203000804 3.0348942711 
3.0494884618 3.0640826525 3.0786768432 3.0932710339 3.1078652246 3.1224594153 3.137053606 3.1516477967 2.9473291268 
2.9619233175 2.9765175082 2.991111699 3.0057058897 3.0203000804 3.0348942711 3.0494884618 3.0640826525 3.0786768432 
3.0932710339 3.1078652246 3.1224594153 3.137053606 3.1516477967 2.9473291268 2.9619233175 2.9765175082 2.991111699 
3.0057058897 3.0203000804 3.0348942711 3.0494884618 3.0640826525 3.0786768432 3.0932710339 3.1078652246 3.1224594153 
3.137053606 3.1516477967 2.9473291268 2.9619233175 2.9765175082 2.991111699 3.0057058897 3.0203000804 3.0348942711 
3.0494884618 3.0640826525 3.0786768432 3.0932710339 3.1078652246 3.1224594153 3.137053606 3.1516477967 2.9473291268 
2.9619233175 2.9765175082 2.991111699 3.0057058897 3.0203000804 3.0348942711 3.0494884618 3.0640826525 3.0786768432 
3.0932710339 3.1078652246 3.1224594153 3.137053606 3.1516477967 2.9473291268 2.9619233175 2.9765175082 2.991111699 
3.0057058897 3.0203000804 3.0348942711 3.0494884618 3.0640826525 3.0786768432 3.0932710339 3.1078652246 3.1224594153 
3.137053606 3.1516477967 2.9473291268 2.9619233175 2.9765175082 2.991111699 3.0057058897 3.0203000804 3.0348942711 
3.0494884618 3.0640826525 3.0786768432 3.0932710339 3.1078652246 3.1224594153 3.137053606 3.1516477967 2.9473291268 
2.9619233175 2.9765175082 2.991111699 3.0057058897 3.0203000804 3.0348942711 3.0494884618 3.0640826525 3.0786768432 
3.0932710339 3.1078652246 3.1224594153 3.137053606 3.1516477967 2.9473291268 2.9619233175 2.9765175082 2.991111699 
3.0057058897 3.0203000804 3.0348942711 3.0494884618 3.0640826525 3.0786768432 3.0932710339 3.1078652246 3.1224594153 
3.137053606 3.1516477967 2.9473291268 2.9619233175 2.9765175082 2.991111699 3.0057058897 3.0203000804 3.0348942711 
3.0494884618 3.0640826525 3.0786768432 3.0932710339 3.1078652246 3.1224594153 3.137053606 2.9473291268 2.9619233175 
2.9765175082 2.991111699 3.0057058897 3.0203000804 3.0348942711 3.0494884618 3.0640826525 3.0786768432 3.0932710339 
3.1078652246 3.1224594153 3.137053606 2.9473291268 2.9619233175 2.9765175082 2.991111699 3.0057058897 3.0203000804 
3.0348942711 3.0494884618 3.0640826525 3.0786768432 3.0932710339 3.1078652246 3.1224594153 3.137053606 2.9473291268 
2.9619233175 2.9765175082 2.991111699 3.0057058897 3.0203000804 3.0348942711 3.0494884618 3.0640826525 3.0786768432 
3.0932710339 3.1078652246 3.1224594153 3.137053606 2.9473291268 2.9619233175 2.9765175082 2.991111699 3.0057058897 
3.0203000804 3.0348942711 3.0494884618 3.0640826525 3.0786768432 3.0932710339 3.1078652246 3.1224594153 2.9473291268 
2.9619233175 2.9765175082 2.991111699 3.0057058897 3.0203000804 3.0348942711 3.0494884618 3.0640826525 3.0786768432 
3.0932710339 3.1078652246 3.1224594153 2.9473291268 2.9619233175 2.9765175082 2.991111699 3.0057058897 3.0203000804 
3.0348942711 3.0494884618 3.0640826525 3.0786768432 3.0932710339 3.1078652246 3.1224594153 2.9473291268 2.9619233175 
2.9765175082 2.991111699 3.0057058897 3.0203000804 3.0348942711 3.0494884618 3.0640826525 3.0786768432 3.0932710339 
3.1078652246 3.1224594153 2.9473291268 2.9619233175 2.9765175082 2.991111699 3.0057058897 3.0203000804 3.0348942711 
3.0494884618 3.0640826525 3.0786768432 3.0932710339 3.1078652246 3.1224594153 3.1224594153 3.1078652246 3.0932710339 
3.0786768432 3.0640826525 3.0640826525 3.0640826525 3.0786768432 3.0786768432 3.0640826525 3.0494884618 3.0348942711 
3.0348942711 3.0494884618 3.0640826525 3.0786768432 3.0932710339 3.1078652246 2.9473291268 2.9473291268 2.9619233175 
2.9619233175 2.9765175082 2.9765175082 2.991111699 2.991111699 3.0057058897 3.0057058897 3.0203000804 3.0203000804 
3.0348942711 3.0348942711 3.0494884618 3.0494884618 3.0640826525 3.0640826525 3.0786768432 3.0786768432 3.0932710339 
3.0932710339 3.1078652246 3.1078652246 3.1224594153 2.9473291268 2.9619233175 2.9765175082 2.991111699 3.0057058897 
3.0203000804 3.0348942711 3.0494884618 3.0640826525 3.0786768432 3.0932710339 3.1078652246 3.1224594153 3.137053606 
2.9473291268 2.9619233175 2.9765175082 2.991111699 3.0057058897 3.0203000804 3.0348942711 3.0494884618 3.0640826525 
3.0786768432 3.0932710339 3.1078652246 3.1224594153 2.9473291268 2.9619233175 2.9765175082 2.991111699 3.0057058897 
3.0203000804 3.0348942711 3.0494884618 3.0640826525 3.0786768432 3.0932710339 3.1078652246 2.9473291268 2.9619233175 
2.9765175082 2.991111699 3.0057058897 3.0203000804 3.0348942711 3.0494884618 3.0640826525 3.0786768432 3.0932710339 
3.1078652246 2.9473291268 2.9619233175 2.9765175082 2.991111699 3.0057058897 3.0203000804 3.0348942711 3.0494884618 
3.0640826525 3.0786768432 3.0932710339 3.1078652246 2.9473291268 2.9619233175 2.9765175082 2.991111699 3.0057058897 
3.0203000804 3.0348942711 3.0494884618 3.0640826525 3.0786768432 3.0932710339 3.1078652246 2.9473291268 2.9619233175 
2.9765175082 2.991111699 3.0057058897 3.0203000804 3.0348942711 3.0494884618 3.0640826525 3.0786768432 3.0932710339 
3.1078652246 2.9473291268 2.9619233175 2.9765175082 2.991111699 3.0057058897 3.0203000804 3.0348942711 3.0494884618 