# vtk DataFile Version 4.2
vtk output
ASCII
DATASET POLYDATA
POINTS 7368 float
1613.24 -2941.13 0 1627.87 -2956.44 0 1658.21 -2941.13 0 
1601.23 -2924.13 0 1664.87 -2937.85 0 1701.87 -2927.05 0 
1719.79 -2924.13 0 1576.31 -2907.13 0 1590.87 -2916.95 0 
1738.88 -2921.23 0 1775.88 -2915.61 0 1812.88 -2910 0 
1831.83 -2907.12 0 1528.03 -2890.13 0 1553.87 -2899.23 0 
1849.88 -2904.38 0 1886.88 -2898.77 0 1923.88 -2893.15 0 
1943.87 -2890.12 0 1479.75 -2873.13 0 1479.87 -2873.17 0 
1516.87 -2886.2 0 1960.88 -2887.54 0 1997.88 -2881.92 0 
2034.89 -2876.3 0 2055.91 -2873.11 0 1431.48 -2856.13 0 
1442.87 -2860.14 0 2071.89 -2870.69 0 2108.89 -2865.07 0 
2145.89 -2859.46 0 2167.95 -2856.11 0 1383.2 -2839.13 0 
1405.87 -2847.11 0 2182.89 -2853.84 0 2219.89 -2848.23 0 
2225.21 -2839.11 0 1334.92 -2822.13 0 1368.87 -2834.08 0 
2227.73 -2822.11 0 1286.64 -2805.13 0 1294.87 -2808.03 0 
1331.87 -2821.06 0 2230.61 -2805.1 0 1238.37 -2788.13 0 
1257.87 -2795 0 2233.49 -2788.1 0 1190.09 -2771.13 0 
1220.87 -2781.97 0 2236.36 -2771.1 0 1141.81 -2754.13 0 
1146.87 -2755.91 0 1183.87 -2768.94 0 2239.24 -2754.1 0 
1093.54 -2737.13 0 1109.87 -2742.88 0 2242.12 -2737.1 0 
1060.37 -2720.13 0 1072.87 -2728.55 0 2244.99 -2720.1 0 
1035.07 -2703.13 0 1035.87 -2703.67 0 2247.87 -2703.1 0 
1009.77 -2686.13 0 2250.75 -2686.1 0 984.471 -2669.13 0 
998.869 -2678.8 0 2253.63 -2669.1 0 961.03 -2652.13 0 
961.87 -2653.94 0 2256.5 -2652.09 0 953.268 -2635.13 0 
2256.91 -2649.72 0 2259.38 -2635.09 0 945.704 -2618.13 0 
2262.26 -2618.09 0 938.33 -2601.13 0 2265.13 -2601.09 0 
931.14 -2584.13 0 2268.01 -2584.09 0 924.189 -2567.13 0 
924.874 -2568.96 0 2270.89 -2567.09 0 917.836 -2550.13 0 
2273.77 -2550.09 0 911.483 -2533.12 0 2276.64 -2533.09 0 
905.13 -2516.12 0 2279.52 -2516.09 0 898.777 -2499.12 0 
2282.4 -2499.09 0 892.424 -2482.12 0 2285.27 -2482.08 0 
886.071 -2465.12 0 887.879 -2469.96 0 2288.15 -2465.08 0 
879.718 -2448.12 0 2291.03 -2448.08 0 873.365 -2431.12 0 
2293.9 -2431.08 0 867.012 -2414.12 0 2293.92 -2431 0 
2296.78 -2414.08 0 860.659 -2397.12 0 2299.66 -2397.08 0 
854.305 -2380.12 0 2302.54 -2380.08 0 847.952 -2363.12 0 
850.884 -2370.96 0 2305.41 -2363.08 0 841.599 -2346.12 0 
2308.29 -2346.08 0 835.246 -2329.11 0 2311.17 -2329.07 0 
828.893 -2312.11 0 2314.04 -2312.07 0 822.54 -2295.11 0 
2316.92 -2295.07 0 816.187 -2278.11 0 2319.8 -2278.07 0 
809.834 -2261.11 0 813.888 -2271.96 0 2322.68 -2261.07 0 
803.481 -2244.11 0 2327.72 -2244.07 0 797.128 -2227.11 0 
2330.93 -2239.53 0 2339.75 -2227.07 0 790.775 -2210.11 0 
2351.78 -2210.07 0 784.422 -2193.11 0 2363.81 -2193.06 0 
778.069 -2176.11 0 2367.94 -2187.24 0 2375.84 -2176.06 0 
771.716 -2159.11 0 776.893 -2172.96 0 2387.87 -2159.06 0 
766.393 -2142.11 0 2399.91 -2142.06 0 763.782 -2125.1 0 
2404.94 -2134.95 0 2411.94 -2125.06 0 761.366 -2108.1 0 
2423.97 -2108.06 0 758.95 -2091.1 0 2436 -2091.06 0 
756.534 -2074.1 0 2441.94 -2082.66 0 2448.03 -2074.06 0 
754.118 -2057.1 0 2460.06 -2057.05 0 751.702 -2040.1 0 
2472.1 -2040.05 0 749.286 -2023.1 0 2477.24 -2023.05 0 
746.871 -2006.1 0 2476.15 -2006.05 0 744.455 -1989.1 0 
2475.49 -1989.05 0 742.039 -1972.1 0 2474.46 -1972.05 0 
739.623 -1955.09 0 739.905 -1957.08 0 2473.29 -1955.05 0 
737.207 -1938.09 0 2472.13 -1938.05 0 734.791 -1921.09 0 
2470.96 -1921.05 0 732.375 -1904.09 0 2469.8 -1904.05 0 
729.96 -1887.09 0 2468.64 -1887.04 0 727.544 -1870.09 0 
2467.47 -1870.04 0 725.128 -1853.09 0 2466.31 -1853.04 0 
722.712 -1836.09 0 2465.14 -1836.04 0 720.296 -1819.09 0 
2463.98 -1819.04 0 717.88 -1802.09 0 2462.81 -1802.04 0 
715.464 -1785.09 0 2461.65 -1785.04 0 713.049 -1768.08 0 
2460.48 -1768.04 0 710.051 -1751.08 0 2459.32 -1751.04 0 
707.143 -1734.08 0 2458.16 -1734.04 0 704.938 -1717.08 0 
2456.99 -1717.03 0 699.09 -1700.08 0 702.918 -1710.8 0 
2455.83 -1700.03 0 693.116 -1683.08 0 2454.66 -1683.03 0 
687.837 -1666.08 0 2453.5 -1666.03 0 683.971 -1649.08 0 
2452.33 -1649.03 0 680.997 -1632.08 0 2451.17 -1632.03 0 
677.261 -1615.08 0 2450 -1615.03 0 -481.107 -1603.52 0 
-491.729 -1598.11 0 -444.106 -1604.07 0 -426.068 -1598.11 0 
673.525 -1598.08 0 2449.37 -1598.03 0 -518.107 -1584.67 0 
-525.1 -1581.11 0 -407.105 -1591.83 0 -374.681 -1581.1 0 
669.789 -1581.07 0 2450.18 -1581.03 0 -555.107 -1565.82 0 
-558.471 -1564.11 0 -370.103 -1579.59 0 -333.101 -1567.35 0 
-323.294 -1564.1 0 666.053 -1564.07 0 2451.2 -1564.03 0 
-591.842 -1547.11 0 -296.099 -1555.1 0 -271.907 -1547.1 0 
662.284 -1547.07 0 665.926 -1563.5 0 2452.23 -1547.02 0 
-592.107 -1546.97 0 -625.213 -1530.11 0 -259.098 -1542.86 0 
-222.096 -1530.62 0 -220.52 -1530.1 0 658.581 -1530.07 0 
2453.26 -1530.02 0 -629.107 -1528.12 0 -658.585 -1513.11 0 
-185.094 -1518.37 0 -169.133 -1513.09 0 654.844 -1513.07 0 
2454.29 -1513.02 0 -666.107 -1509.27 0 -691.956 -1496.11 0 
-148.093 -1506.13 0 -117.745 -1496.09 0 651.108 -1496.07 0 
2455.32 -1496.02 0 -703.107 -1490.43 0 -725.327 -1479.11 0 
-111.091 -1493.89 0 -74.0891 -1481.63 0 -71.6745 -1479.09 0 
647.372 -1479.07 0 2456.35 -1479.02 0 -740.106 -1468.43 0 
-745.172 -1462.11 0 -48.6985 -1462.09 0 643.636 -1462.07 0 
2457.38 -1462.02 0 -757.161 -1445.11 0 -37.0865 -1453.86 0 
-30.7975 -1445.09 0 639.9 -1445.07 0 2458.41 -1445.02 0 
-769.15 -1428.1 0 -18.6128 -1428.08 0 636.164 -1428.07 0 
1396.84 -1428.05 0 1405.95 -1428.35 0 1442.95 -1429.57 0 
1479.96 -1430.79 0 1516.96 -1432.01 0 1532.38 -1428.04 0 
2459.44 -1428.02 0 -777.104 -1416.83 0 -781.139 -1411.1 0 
-6.42818 -1411.08 0 632.427 -1411.07 0 1323.28 -1411.05 0 
1331.95 -1414.3 0 1368.95 -1427.08 0 1553.96 -1419.69 0 
1562.82 -1411.04 0 2460.46 -1411.02 0 -793.128 -1394.1 0 
-0.0824792 -1402.23 0 5.75646 -1394.08 0 628.691 -1394.06 0 
628.935 -1395.17 0 1277.94 -1394.05 0 1294.95 -1400.43 0 
1580.23 -1394.04 0 2461.49 -1394.02 0 -805.117 -1377.1 0 
17.9411 -1377.08 0 624.955 -1377.06 0 1232.61 -1377.05 0 
1257.95 -1386.55 0 1590.96 -1383.57 0 1597.65 -1377.04 0 
2462.52 -1377.01 0 -814.102 -1364.36 0 -817.106 -1360.1 0 
30.1258 -1360.08 0 621.219 -1360.06 0 1207.81 -1360.05 0 
1220.95 -1372.68 0 1615.07 -1360.04 0 2463.55 -1360.01 0 
-829.095 -1343.1 0 36.9216 -1350.6 0 42.3105 -1343.08 0 
617.483 -1343.06 0 1186.97 -1343.05 0 1627.96 -1347.44 0 
1632.48 -1343.03 0 2464.58 -1343.01 0 -841.084 -1326.1 0 
54.4951 -1326.08 0 613.747 -1326.06 0 1168.47 -1326.05 0 
1183.95 -1340.84 0 1649.9 -1326.03 0 2465.61 -1326.01 0 
-851.1 -1311.9 0 -853.074 -1309.1 0 66.6798 -1309.08 0 
608.098 -1309.06 0 1147.95 -1309.05 0 1664.97 -1311.32 0 
1667.31 -1309.03 0 2466.64 -1309.01 0 -865.063 -1292.1 0 
73.9256 -1298.97 0 78.8645 -1292.07 0 598.28 -1292.06 0 
1122.36 -1292.05 0 1146.95 -1308.29 0 1684.73 -1292.03 0 
2467.67 -1292.01 0 -877.052 -1275.1 0 91.0491 -1275.07 0 
588.81 -1275.06 0 591.941 -1281.08 0 1096.62 -1275.05 0 
1109.95 -1283.85 0 1701.97 -1275.2 0 1702.12 -1275.03 0 
2466.39 -1275.01 0 -888.098 -1259.43 0 -889.041 -1258.1 0 
103.234 -1258.07 0 581.139 -1258.06 0 1070.88 -1258.05 0 
1072.95 -1259.41 0 1716.74 -1258.03 0 2464.07 -1258.01 0 
-901.03 -1241.1 0 110.93 -1247.33 0 115.418 -1241.07 0 
574.997 -1241.06 0 1045.15 -1241.04 0 1731.49 -1241.03 0 
2462.27 -1241.01 0 -913.019 -1224.1 0 127.603 -1224.07 0 
570.975 -1224.06 0 1019.41 -1224.04 0 1035.96 -1234.97 0 
1738.97 -1230.45 0 1743.22 -1224.02 0 2458.99 -1224.01 0 
-925.008 -1207.1 0 136.206 -1207.07 0 566.953 -1207.06 0 
995.908 -1207.04 0 998.956 -1210.53 0 1754.59 -1207.02 0 
2455.52 -1207 0 -925.096 -1206.97 0 -936.997 -1190.1 0 
140.467 -1190.07 0 562.931 -1190.05 0 981.016 -1190.04 0 
1765.94 -1190.02 0 2453.13 -1190 0 -948.986 -1173.09 0 
143.438 -1173.07 0 558.909 -1173.05 0 966.047 -1173.04 0 
1775.98 -1174.42 0 1776.9 -1173.02 0 2452.01 -1173 0 
-960.975 -1156.09 0 145.474 -1156.06 0 554.886 -1156.05 0 
554.947 -1156.31 0 953.41 -1156.04 0 961.957 -1168.41 0 
1788.13 -1156.02 0 2451.66 -1156 0 -962.094 -1154.51 0 
-972.964 -1139.09 0 147.18 -1139.06 0 550.824 -1139.05 0 
942.408 -1139.04 0 1799.36 -1139.02 0 2451.3 -1139 0 
-986.933 -1122.09 0 147.937 -1131.51 0 148.886 -1122.06 0 
546.767 -1122.05 0 932.184 -1122.04 0 1810.58 -1122.02 0 
2451 -1122 0 -999.092 -1111.48 0 -1006.45 -1105.09 0 
150.592 -1105.06 0 542.716 -1105.05 0 922.636 -1105.04 0 
924.96 -1109.26 0 1812.98 -1118.38 0 1821.81 -1105.02 0 
2450.75 -1105 0 -1019.78 -1088.09 0 152.298 -1088.06 0 
538.669 -1088.05 0 913.267 -1088.04 0 1833.04 -1088.01 0 
2450.5 -1088 0 -1026.19 -1071.09 0 154.032 -1071.06 0 
534.628 -1071.05 0 903.898 -1071.04 0 1844.27 -1071.01 0 
2450.25 -1071 0 -1029.18 -1054.09 0 160.742 -1054.06 0 
530.592 -1054.05 0 891.766 -1054.04 0 1849.99 -1062.35 0 
1854.51 -1054.01 0 2450.01 -1054 0 -1031.51 -1037.09 0 
167.53 -1037.06 0 526.562 -1037.05 0 876.841 -1037.04 0 
887.962 -1049.71 0 1862.85 -1037.01 0 2449.76 -1036.99 0 
-1033.84 -1020.09 0 174.318 -1020.06 0 522.536 -1020.05 0 
861.916 -1020.04 0 1869.22 -1020.01 0 2449.52 -1019.99 0 
-1036.09 -1003.74 0 -1036.18 -1003.09 0 181.106 -1003.05 0 
518.516 -1003.04 0 846.991 -1003.04 0 850.964 -1007.56 0 
1875.44 -1003.01 0 2449.28 -1002.99 0 -1038.59 -986.086 0 
184.947 -993.435 0 187.894 -986.053 0 514.436 -986.044 0 
517.955 -1000.67 0 832.066 -986.036 0 1881.66 -986.007 0 
2449.04 -985.992 0 -1040.84 -969.085 0 194.682 -969.052 0 
510.964 -969.043 0 817.141 -969.035 0 1886.99 -971.437 0 
1887.88 -969.006 0 2448.83 -968.991 0 -1043.17 -952.084 0 
201.47 -952.051 0 506.636 -952.042 0 802.652 -952.034 0 
813.965 -965.417 0 1894.89 -952.005 0 2448.22 -951.99 0 
-1045.51 -935.083 0 208.258 -935.049 0 502.343 -935.041 0 
789.422 -935.034 0 1903.2 -935.004 0 2446.03 -934.989 0 
-1047.84 -918.082 0 212.32 -918.048 0 497.307 -918.041 0 
777.319 -918.033 0 1911.57 -918.002 0 2443.5 -917.988 0 
-1050.17 -901.081 0 213.149 -901.047 0 491.789 -901.04 0 
767.318 -901.032 0 776.967 -917.517 0 1919.93 -901.001 0 
2442.01 -907.99 0 2440.97 -900.987 0 -1052.5 -884.08 0 
213.75 -884.046 0 486.272 -884.039 0 757.367 -884.031 0 
1924 -892.731 0 1928.3 -884 0 2438.44 -883.986 0 
[...]
POINT_DATA 7368
SCALARS Pressure double
LOOKUP_TABLE default
3.0932710339 3.0932710339 3.0932710339 3.0932710339 3.0932710339 3.0932710339 3.0932710339 3.0932710339 3.0932710339 
3.0932710339 3.0932710339 3.0932710339 3.0932710339 3.0932710339 3.0932710339 3.0932710339 3.0932710339 3.0932710339 
3.0932710339 3.0932710339 3.0932710339 3.0932710339 3.0932710339 3.0932710339 3.0932710339 3.0932710339 3.0932710339 
3.0932710339 3.0932710339 3.0932710339 3.0932710339 3.0932710339 3.0932710339 3.0932710339 3.0932710339 3.0932710339 
3.0932710339 3.0932710339 3.0932710339 3.0932710339 3.0932710339 3.0932710339 3.0932710339 3.0932710339 3.0932710339 
3.0932710339 3.0932710339 3.0932710339 3.0932710339 3.0932710339 3.0932710339 3.0932710339 3.0932710339 3.0932710339 
3.0932710339 3.0932710339 3.0932710339 3.0932710339 3.0932710339 3.0932710339 3.0932710339 3.0932710339 3.0932710339 
3.0932710339 3.0932710339 3.0932710339 3.0932710339 3.0932710339 3.0932710339 3.0932710339 3.0932710339 3.0932710339 
3.0932710339 3.0932710339 3.0932710339 3.0932710339 3.0932710339 3.0932710339 3.0932710339 3.0932710339 3.0932710339 
3.0932710339 3.0932710339 3.0932710339 3.0932710339 3.0932710339 3.0932710339 3.0932710339 3.0932710339 3.0932710339 
3.0932710339 3.0932710339 3.0932710339 3.0932710339 3.0932710339 3.0932710339 3.0932710339 3.0932710339 3.0932710339 
3.0932710339 3.0932710339 3.0932710339 3.0932710339 3.0932710339 3.0932710339 3.0932710339 3.0932710339 3.0932710339 
3.0932710339 3.0932710339 3.0932710339 3.0932710339 3.0932710339 3.0932710339 3.0932710339 3.0932710339 3.0932710339 
3.0932710339 3.0932710339 3.0932710339 3.0932710339 3.0932710339 3.0932710339 3.0932710339 3.0932710339 3.0932710339 
3.0932710339 3.0932710339 3.0932710339 3.0932710339 3.0932710339 3.0932710339 3.0932710339 3.0932710339 3.0932710339 
3.0932710339 3.0932710339 3.0932710339 3.0932710339 3.0932710339 3.0932710339 3.0932710339 3.0932710339 3.0932710339 
3.0932710339 3.0932710339 3.0932710339 3.0932710339 3.0932710339 3.0932710339 3.0932710339 3.0932710339 3.0932710339 
3.0932710339 3.0932710339 3.0932710339 3.0932710339 3.0932710339 3.0932710339 3.0932710339 3.0932710339 3.0932710339 
3.0932710339 3.0932710339 3.0932710339 3.0932710339 3.0932710339 3.0932710339 3.0932710339 3.0932710339 3.0932710339 
3.0932710339 3.0932710339 3.0932710339 3.0932710339 3.0932710339 3.0932710339 3.0932710339 3.0932710339 3.0932710339 
3.0932710339 3.0932710339 3.0932710339 3.0932710339 3.0932710339 3.0932710339 3.0932710339 3.0932710339 3.0932710339 
3.0932710339 3.0932710339 3.0932710339 3.0932710339 3.0932710339 3.0932710339 3.0932710339 3.0932710339 3.0932710339 
3.0932710339 3.0932710339 3.0932710339 3.0932710339 3.0932710339 3.0932710339 3.0932710339 3.0932710339 3.0786768432 
3.0786768432 3.0786768432 3.0786768432 3.0932710339 3.0932710339 3.0786768432 3.0786768432 3.0786768432 3.0786768432 
3.0932710339 3.0932710339 3.0786768432 3.0786768432 3.0786768432 3.0786768432 3.0786768432 3.0932710339 3.0932710339 
3.0786768432 3.0786768432 3.0786768432 3.0932710339 3.0932710339 3.0932710339 3.0786768432 3.0786768432 3.0786768432 
3.0786768432 3.0786768432 3.0932710339 3.0932710339 3.0786768432 3.0786768432 3.0786768432 3.0786768432 3.0932710339 
3.0932710339 3.0786768432 3.0786768432 3.0786768432 3.0786768432 3.0932710339 3.0932710339 3.0786768432 3.0786768432 
3.0786768432 3.0786768432 3.0786768432 3.0932710339 3.0932710339 3.0786768432 3.0786768432 3.0786768432 3.0932710339 
3.0932710339 3.0786768432 3.0786768432 3.0786768432 3.0932710339 3.0932710339 3.0786768432 3.0786768432 3.0932710339 
3.1078652246 3.1078652246 3.1078652246 3.1078652246 3.1078652246 3.1078652246 3.0932710339 3.0786768432 3.0786768432 
3.0786768432 3.0932710339 3.1078652246 3.1078652246 3.1078652246 3.1078652246 3.1078652246 3.0932710339 3.0786768432 
3.0786768432 3.0786768432 3.0932710339 3.0932710339 3.1078652246 3.1078652246 3.1078652246 3.0932710339 3.0786768432 
3.0786768432 3.0932710339 3.1078652246 3.1078652246 3.1078652246 3.1078652246 3.0932710339 3.0786768432 3.0786768432 
3.0786768432 3.0932710339 3.1078652246 3.1078652246 3.1078652246 3.0932710339 3.0786768432 3.0786768432 3.0786768432 
3.0932710339 3.1078652246 3.1078652246 3.1078652246 3.0932710339 3.0786768432 3.0786768432 3.0932710339 3.1078652246 
3.1078652246 3.1078652246 3.0932710339 3.0786768432 3.0786768432 3.0786768432 3.0932710339 3.1078652246 3.1078652246 
3.1078652246 3.0932710339 3.0786768432 3.0786768432 3.0786768432 3.0932710339 3.1078652246 3.1078652246 3.1078652246 
3.0932710339 3.0786768432 3.0786768432 3.0932710339 3.0932710339 3.1078652246 3.1078652246 3.1078652246 3.1078652246 
3.0932710339 3.0786768432 3.0786768432 3.0786768432 3.0932710339 3.1078652246 3.1078652246 3.1078652246 3.0932710339 
3.0786768432 3.0786768432 3.0786768432 3.0932710339 3.1078652246 3.1078652246 3.0932710339 3.0786768432 3.0786768432 
3.0932710339 3.1078652246 3.1078652246 3.1078652246 3.1078652246 3.0932710339 3.0786768432 3.0786768432 3.0932710339 
3.1078652246 3.1078652246 3.1078652246 3.0932710339 3.0786768432 3.0786768432 3.0786768432 3.0932710339 3.1078652246 
3.1078652246 3.0932710339 3.0786768432 3.0786768432 3.0932710339 3.1078652246 3.1078652246 3.1078652246 3.0932710339 
3.0786768432 3.0786768432 3.0932710339 3.0932710339 3.1078652246 3.1078652246 3.1078652246 3.0932710339 3.0786768432 
3.0786768432 3.0786768432 3.0932710339 3.1078652246 3.1078652246 3.0932710339 3.0786768432 3.0786768432 3.0786768432 
3.0932710339 3.1078652246 3.1078652246 3.0932710339 3.0786768432 3.0786768432 3.0786768432 3.0932710339 3.1078652246 
3.1078652246 3.1078652246 3.1078652246 3.0932710339 3.0786768432 3.0786768432 3.0932710339 3.1078652246 3.1078652246 
3.0932710339 3.0786768432 3.0786768432 3.0932710339 3.1078652246 3.1078652246 3.0932710339 3.0786768432 3.0786768432 
3.0932710339 3.1078652246 3.1078652246 3.1078652246 3.0932710339 3.0786768432 3.0786768432 3.0932710339 3.1078652246 
3.1078652246 3.1078652246 3.0932710339 3.0786768432 3.0786768432 3.0932710339 3.1078652246 3.1078652246 3.0932710339 
3.0786768432 3.0786768432 3.0786768432 3.0932710339 3.1078652246 3.1078652246 3.1078652246 3.0932710339 3.0786768432 
3.0786768432 3.0786768432 3.0932710339 3.0932710339 3.1078652246 3.1078652246 3.0932710339 3.0786768432 3.0786768432 
3.0932710339 3.1078652246 3.1078652246 3.1078652246 3.0932710339 3.0786768432 3.0786768432 3.0932710339 3.1078652246 
3.1078652246 3.1078652246 3.0932710339 3.0786768432 3.0786768432 3.0932710339 3.1078652246 3.1078652246 3.0932710339 
3.0786768432 3.0786768432 3.0932710339 3.1078652246 3.1078652246 3.0932710339 3.0786768432 3.0786768432 3.0932710339 
3.1078652246 3.1078652246 3.1078652246 3.0932710339 3.0932710339 3.0786768432 3.0786768432 3.0932710339 3.1078652246 
3.1078652246 3.1078652246 3.0932710339 3.0786768432 3.0786768432 3.0932710339 3.0932710339 3.1078652246 3.1078652246 
3.0932710339 3.0786768432 3.0786768432 3.0932710339 3.1078652246 3.1078652246 3.1078652246 3.0932710339 3.0786768432 
3.0786768432 3.0932710339 3.1078652246 3.1078652246 3.0932710339 3.0786768432 3.0786768432 3.0932710339 3.1078652246 
3.1078652246 3.0932710339 3.0786768432 3.0786768432 3.0786768432 3.0786768432 3.0786768432 3.0932710339 3.1078652246 
3.1224594153 3.1224594153 3.1224594153 3.1224594153 3.1224594153 3.1224594153 3.1078652246 3.1078652246 3.0932710339 
3.0786768432 3.0786768432 3.0786768432 3.0786768432 3.0786768432 3.0786768432 3.0932710339 3.1078652246 3.1078652246 
3.1224594153 3.1224594153 3.1224594153 3.1224594153 3.1224594153 3.1224594153 3.1224594153 3.1078652246 3.0932710339 
3.0786768432 3.0786768432 3.0786768432 3.0786768432 3.0786768432 3.0786768432 3.0786768432 3.0932710339 3.1078652246 
3.1224594153 3.1224594153 3.1224594153 3.1078652246 3.0932710339 3.0786768432 3.0786768432 3.0786768432 3.0786768432 
3.0786768432 3.0786768432 3.0932710339 3.1078652246 3.1224594153 3.1224594153 3.1224594153 3.1078652246 3.0932710339 
3.0786768432 3.0786768432 3.0786768432 3.0786768432 3.0786768432 3.0786768432 3.0786768432 3.0640826525 3.0640826525 
3.0640826525 3.0640826525 3.0640826525 3.0640826525 3.0640826525 3.0786768432 3.0932710339 3.1078652246 3.1078652246 
3.1224594153 3.1224594153 3.1224594153 3.1078652246 3.0932710339 3.0786768432 3.0786768432 3.0786768432 3.0786768432 
3.0640826525 3.0640826525 3.0640826525 3.0640826525 3.0640826525 3.0786768432 3.0932710339 3.0932710339 3.1078652246 
3.1224594153 3.1224594153 3.1224594153 3.1078652246 3.0932710339 3.0932710339 3.0786768432 3.0786768432 3.0786768432 
3.0786768432 3.0786768432 3.0640826525 3.0640826525 3.0786768432 3.0932710339 3.1078652246 3.1224594153 3.1224594153 
3.1224594153 3.1224594153 3.1078652246 3.0932710339 3.0786768432 3.0786768432 3.0786768432 3.0786768432 3.0640826525 
3.0640826525 3.0640826525 3.0640826525 3.0786768432 3.0932710339 3.1078652246 3.1224594153 3.1224594153 3.1224594153 
3.1078652246 3.1078652246 3.0932710339 3.0786768432 3.0786768432 3.0786768432 3.0786768432 3.0640826525 3.0640826525 
3.0786768432 3.0932710339 3.1078652246 3.1078652246 3.1224594153 3.1224594153 3.1224594153 3.1078652246 3.0932710339 
3.0932710339 3.0786768432 3.0786768432 3.0786768432 3.0786768432 3.0786768432 3.0640826525 3.0640826525 3.0640826525 
3.0640826525 3.0786768432 3.0932710339 3.1078652246 3.1224594153 3.1224594153 3.1224594153 3.1078652246 3.0932710339 
3.0786768432 3.0786768432 3.0786768432 3.0640826525 3.0640826525 3.0786768432 3.0932710339 3.1078652246 3.1224594153 
3.1224594153 3.1078652246 3.0932710339 3.0786768432 3.0786768432 3.0786768432 3.0786768432 3.0640826525 3.0640826525 
3.0640826525 3.0786768432 3.0932710339 3.1078652246 3.1224594153 3.1224594153 3.1224594153 3.1224594153 3.1078652246 
3.0932710339 3.0786768432 3.0786768432 3.0786768432 3.0640826525 3.0640826525 3.0640826525 3.0786768432 3.0932710339 
3.1078652246 3.1224594153 3.1224594153 3.1224594153 3.1078652246 3.0932710339 3.0786768432 3.0786768432 3.0786768432 
3.0786768432 3.0640826525 3.0640826525 3.0640826525 3.0640826525 3.0786768432 3.0932710339 3.0932710339 3.1078652246 
3.1224594153 3.1224594153 3.1078652246 3.0932710339 3.0786768432 3.0786768432 3.0786768432 3.0786768432 3.0640826525 
3.0640826525 3.0786768432 3.0932710339 3.1078652246 3.1078652246 3.1224594153 3.1224594153 3.1078652246 3.1078652246 
3.0932710339 3.0786768432 3.0786768432 3.0786768432 3.0640826525 3.0640826525 3.0786768432 3.0932710339 3.1078652246 
3.1224594153 3.1224594153 3.1224594153 3.1224594153 3.1078652246 3.0932710339 3.0786768432 3.0786768432 3.0786768432 
3.0640826525 3.0640826525 3.0786768432 3.0932710339 3.1078652246 3.1078652246 3.1224594153 3.1224594153 3.1078652246 
3.0932710339 3.0786768432 3.0786768432 3.0786768432 3.0786768432 3.0640826525 3.0640826525 3.0786768432 3.0932710339 
3.1078652246 3.1224594153 3.1224594153 3.1224594153 3.1078652246 3.0932710339 3.0786768432 3.0786768432 3.0786768432 
3.0786768432 3.0640826525 3.0640826525 3.0786768432 3.0932710339 3.1078652246 3.1224594153 3.1224594153 3.1224594153 
3.1078652246 3.0932710339 3.0786768432 3.0786768432 3.0786768432 3.0786768432 3.0640826525 3.0640826525 3.0640826525 
3.0640826525 3.0786768432 3.0932710339 3.1078652246 3.1224594153 3.1224594153 3.1224594153 3.1078652246 3.0932710339 
3.0786768432 3.0786768432 3.0786768432 3.0786768432 3.0640826525 3.0640826525 3.0786768432 3.0932710339 3.1078652246 
3.1078652246 3.1224594153 3.1224594153 3.1078652246 3.0932710339 3.0786768432 3.0786768432 3.0786768432 3.0640826525 
3.0640826525 3.0786768432 3.0932710339 3.0932710339 3.1078652246 3.1224594153 3.137053606 3.137053606 3.137053606 
3.137053606 3.1224594153 3.1078652246 3.0932710339 3.0786768432 3.0786768432 3.0786768432 3.0640826525 3.0494884618 
3.0494884618 3.0494884618 3.0494884618 3.0494884618 3.0640826525 3.0786768432 3.0932710339 3.1078652246 3.1224594153 
3.1224594153 3.137053606 3.137053606 3.137053606 3.137053606 3.1224594153 3.1078652246 3.0932710339 3.0786768432 
3.0786768432 3.0786768432 3.0640826525 3.0494884618 3.0494884618 3.0494884618 3.0494884618 3.0640826525 3.0786768432 
3.0932710339 3.1078652246 3.1224594153 3.137053606 3.137053606 3.137053606 3.137053606 3.1224594153 3.1078652246 
3.0932710339 3.0786768432 3.0786768432 3.0786768432 3.0640826525 3.0640826525 3.0494884618 3.0494884618 3.0494884618 
3.0640826525 3.0786768432 3.0932710339 3.1078652246 3.1078652246 3.1224594153 3.137053606 3.137053606 3.137053606 
3.1224594153 3.1078652246 3.0932710339 3.0786768432 3.0786768432 3.0786768432 3.0786768432 3.0786768432 3.0640826525 
3.0494884618 3.0494884618 3.0494884618 3.0640826525 3.0786768432 3.0932710339 3.1078652246 3.1224594153 3.1224594153 
3.137053606 3.137053606 3.137053606 3.1224594153 3.1078652246 3.0932710339 3.0786768432 3.0786768432 3.0786768432 
3.0640826525 3.0494884618 3.0494884618 3.0494884618 3.0640826525 3.0786768432 3.0932710339 3.0932710339 3.1078652246 
3.1224594153 3.137053606 3.137053606 3.1224594153 3.1224594153 3.1078652246 3.0932710339 3.0786768432 3.0786768432 
3.0786768432 3.0640826525 3.0494884618 3.0494884618 3.0640826525 3.0786768432 3.0932710339 3.1078652246 3.1078652246 
3.1224594153 3.137053606 3.137053606 3.137053606 3.1224594153 3.1078652246 3.0932710339 3.0786768432 3.0786768432 
3.0786768432 3.0786768432 3.0640826525 3.0494884618 3.0494884618 3.0494884618 3.0494884618 3.0640826525 3.0786768432 
3.0932710339 3.1078652246 3.1224594153 3.1224594153 3.137053606 3.137053606 3.137053606 3.1224594153 3.1078652246 
3.0932710339 3.0932710339 3.0786768432 3.0786768432 3.0786768432 3.0640826525 3.0494884618 3.0494884618 3.0640826525 
3.0786768432 3.0932710339 3.1078652246 3.1224594153 3.137053606 3.137053606 3.137053606 3.1224594153 3.1078652246 
3.0932710339 3.0786768432 3.0786768432 3.0786768432 3.0786768432 3.0786768432 3.0640826525 3.0494884618 3.0494884618 
3.0640826525 3.0786768432 3.0786768432 3.0932710339 3.1078652246 3.1078652246 3.1224594153 3.137053606 3.137053606 
3.1224594153 3.1078652246 3.0932710339 3.0786768432 3.0786768432 3.0786768432 3.0786768432 3.0786768432 3.0640826525 
3.0494884618 3.0494884618 3.0494884618 3.0640826525 3.0786768432 3.0932710339 3.0932710339 3.1078652246 3.1224594153 
3.137053606 3.137053606 3.1224594153 3.1078652246 3.0932710339 3.0786768432 3.0786768432 3.0786768432 3.0786768432 
3.0640826525 3.0640826525 3.0494884618 3.0348942711 3.0348942711 3.0348942711 3.0348942711 3.0494884618 3.0640826525 
3.0786768432 3.0932710339 3.1078652246 3.1224594153 3.1224594153 3.137053606 3.137053606 3.137053606 3.1224594153 
3.1078652246 3.0932710339 3.0786768432 3.0640826525 3.0640826525 3.0640826525 3.0640826525 3.0786768432 3.0786768432 
3.0786768432 3.0786768432 3.0640826525 3.0494884618 3.0348942711 3.0348942711 3.0348942711 3.0348942711 3.0494884618 
3.0494884618 3.0640826525 3.0786768432 3.0932710339 3.1078652246 3.1224594153 3.137053606 3.137053606 3.1224594153 
3.1078652246 3.0932710339 3.0786768432 3.0640826525 3.0640826525 3.0640826525 3.0640826525 3.0786768432 3.0786768432 
3.0786768432 3.0786768432 3.0786768432 3.0640826525 3.0494884618 3.0348942711 3.0348942711 3.0348942711 3.0494884618 
3.0640826525 3.0786768432 3.0932710339 3.1078652246 3.1224594153 3.137053606 3.137053606 3.1224594153 3.1078652246 
3.0932710339 3.0786768432 3.0786768432 3.0640826525 3.0640826525 3.0640826525 3.0786768432 3.0786768432 3.0786768432 
3.0786768432 3.0640826525 3.0494884618 3.0348942711 3.0348942711 3.0348942711 3.0494884618 3.0640826525 3.0786768432 
3.0932710339 3.1078652246 3.1078652246 3.1224594153 3.137053606 3.137053606 3.137053606 3.137053606 3.1224594153 
3.1224594153 3.1078652246 3.0932710339 3.0786768432 3.0640826525 3.0640826525 3.0640826525 3.0640826525 3.0786768432 
3.0786768432 3.0786768432 3.0640826525 3.0494884618 3.0348942711 3.0348942711 3.0494884618 3.0640826525 3.0786768432 
3.0932710339 3.1078652246 3.1224594153 3.137053606 3.137053606 3.1224594153 3.1078652246 3.0932710339 3.0786768432 
3.0640826525 3.0640826525 3.0640826525 3.0786768432 3.0786768432 3.0786768432 3.0640826525 3.0494884618 3.0494884618 
3.0348942711 3.0348942711 3.0203000804 3.0203000804 3.0203000804 3.0348942711 3.0348942711 3.0494884618 3.0640826525 
3.0786768432 3.0786768432 3.0932710339 3.1078652246 3.1224594153 2.9473291268 2.9473291268 2.9619233175 2.9619233175 
2.9765175082 2.9765175082 2.991111699 2.991111699 3.0057058897 3.0057058897 3.0203000804 3.0203000804 3.0348942711 
3.0348942711 3.0494884618 3.0494884618 3.0640826525 3.0640826525 3.0786768432 3.0786768432 3.0932710339 3.0932710339 
3.1078652246 3.1078652246 3.1224594153 3.1224594153 2.9473291268 2.9619233175 2.9765175082 2.991111699 3.0057058897 
3.0203000804 3.0348942711 3.0494884618 3.0640826525 3.0786768432 3.0932710339 3.1078652246 3.1224594153 3.137053606 
2.9473291268 2.9619233175 2.9765175082 2.991111699 3.0057058897 3.0203000804 3.0348942711 3.0494884618 3.0640826525 
3.0786768432 3.0932710339 3.1078652246 3.1224594153 3.137053606 2.9473291268 2.9619233175 2.9765175082 2.991111699 
3.0057058897 3.0203000804 3.0348942711 3.0494884618 3.0640826525 3.0786768432 3.0932710339 3.1078652246 3.1224594153 
3.137053606 2.9473291268 2.9619233175 2.9765175082 2.991111699 3.0057058897 3.0203000804 3.0348942711 3.0494884618 
3.0640826525 3.0786768432 3.0932710339 3.1078652246 3.1224594153 3.137053606 2.9473291268 2.9619233175 2.9765175082 
2.991111699 3.0057058897 3.0203000804 3.0348942711 3.0494884618 3.0640826525 3.0786768432 3.0932710339 3.1078652246 
3.1224594153 3.137053606 2.9473291268 2.9619233175 2.9765175082 2.991111699 3.0057058897 3.0203000804 3.0348942711 
3.0494884618 3.0640826525 3.0786768432 3.0932710339 3.1078652246 3.1224594153 3.137053606 2.9473291268 2.9619233175 
2.9765175082 2.991111699 3.0057058897 3.0203000804 3.0348942711 3.0494884618 3.0640826525 3.0786768432 3.0932710339 
3.1078652246 3.1224594153 3.137053606 2.9473291268 2.9619233175 2.9765175082 2.991111699 3.0057058897 3.0203000804 
3.0348942711 3.0494884618 3.0640826525 3.0786768432 3.0932710339 3.1078652246 3.1224594153 3.137053606 2.9473291268 
2.9619233175 2.9765175082 2.991111699 3.0057058897 3.0203000804 3.0348942711 3.0494884618 3.0640826525 3.0786768432 
3.0932710339 3.1078652246 3.1224594153 3.137053606 3.137053606 3.1224594153 3.1078652246 3.0932710339 3.0786768432 
3.0640826525 3.0640826525 3.0786768432 3.0786768432 3.0640826525 3.0494884618 3.0348942711 3.0203000804 3.0203000804 
3.0203000804 3.0203000804 3.0348942711 3.0494884618 3.0640826525 3.0786768432 3.0932710339 3.1078652246 2.9473291268 
2.9473291268 2.9619233175 2.9619233175 2.9765175082 2.9765175082 2.991111699 2.991111699 3.0057058897 3.0057058897 
3.0203000804 3.0203000804 3.0348942711 3.0348942711 3.0494884618 3.0494884618 3.0640826525 3.0640826525 3.0786768432 
3.0786768432 3.0932710339 3.0932710339 3.1078652246 3.1078652246 2.9473291268 2.9619233175 2.9765175082 2.991111699 
3.0057058897 3.0203000804 3.0348942711 3.0494884618 3.0640826525 3.0786768432 3.0932710339 3.1078652246 2.9473291268 
2.9619233175 2.9765175082 2.991111699 3.0057058897 3.0203000804 3.0348942711 3.0494884618 3.0640826525 3.0786768432 
3.0932710339 3.1078652246 2.9473291268 2.9619233175 2.9765175082 2.991111699 3.0057058897 3.0203000804 3.0348942711 
3.0494884618 3.0640826525 3.0786768432 3.0932710339 3.1078652246 3.1224594153 2.9473291268 2.9619233175 2.9765175082 
2.991111699 3.0057058897 3.0203000804 3.0348942711 3.0494884618 3.0640826525 3.0786768432 3.0932710339 3.1078652246 
3.1224594153 2.9473291268 2.9619233175 2.9765175082 2.991111699 3.0057058897 3.0203000804 3.0348942711 3.0494884618 
3.0640826525 3.0786768432 3.0932710339 3.1078652246 3.1224594153 2.9473291268 2.9619233175 2.9765175082 2.991111699 
3.0057058897 3.0203000804 3.0348942711 3.0494884618 3.0640826525 3.0786768432 3.0932710339 3.1078652246 3.1224594153 
2.9473291268 2.9619233175 2.9765175082 2.991111699 3.0057058897 3.0203000804 3.0348942711 3.0494884618 3.0640826525 