# vtk DataFile Version 4.2
vtk output
ASCII
DATASET UNSTRUCTURED_GRID
POINTS 1740 double
2144.07 -94.44003 0 2911 0 0 16.54298 -37.82236 0 
5.09149 -21.30132 0 1.27433 -10.75385 0 0 0 0 
2.54575 15.14293 0 6.36291 23.76126 0 14.00014 34.89063 0 
30.50239 50.70793 0 33.39435 -52.93479 0 2050.91 -103.7862 0 
60.1465 -69.72165 0 88.83633 -83.2817 0 118.7656 -94.71113 0 
153.4168 -105.7022 0 199.5806 -117.771 0 261.4466 -130.7139 0 
345.846 -144.1892 0 460.3522 -157.0592 0 608.4185 -167.1903 0 
783.2313 -172.4016 0 941.0559 -172.4533 0 1063.409 -170.1096 0 
1164.153 -166.8746 0 1263.449 -162.682 0 1375.468 -156.8941 0 
1513.293 -148.414 0 1665.281 -137.5317 0 1791.864 -127.3721 0 
2195.451 -89.09491 0 2273.924 -80.67077 0 2383.731 -68.3513 0 
2517.64 -52.47337 0 2649.227 -35.9232 0 2740.773 -23.82991 0 
2804.387 -15.13419 0 2848.802 -8.916218 0 2881.944 -4.196067 0 
56.61447 67.79801 0 84.09687 81.25172 0 112.4783 92.48395 0 
142.1748 102.3504 0 174.8563 111.6168 0 213.124 120.8806 0 
260.3759 130.5151 0 324.6539 141.1779 0 418.1422 152.9178 0 
535.6656 162.9871 0 690.9154 170.4255 0 902.6513 172.7852 0 
1100.32 169.0517 0 1270.99 162.3262 0 1462.794 151.6837 0 
1631.287 140.0952 0 1747.993 131 0 1922.788 115.9027 0 
2069.56 101.951 0 2128.804 96.0021 0 2297.147 78.11721 0 
2414.379 64.80104 0 2554.023 47.99319 0 2673.693 32.73885 0 
2757.97 21.50315 0 2814.297 13.7575 0 2852.02 8.460961 0 
2882.272 4.148909 0 1791.052 127.4402 0 1366.894 157.3738 0 
1444.38 -152.8302 0 1547.039 146.1296 0 1589.287 -143.1614 0 
1878.731 119.8675 0 1997.072 108.9828 0 1185.654 166.0472 0 
1882.536 -119.5292 0 1971.323 -111.4145 0 1684.777 136.0292 0 
2099.317 -98.9855 0 2234.809 84.9091 0 2181.695 90.53914 0 
1728.573 -132.5703 0 1718.815 133.3509 0 1834.825 123.7132 0 
1960.305 112.4444 0 2033.69 105.4648 0 2099.184 98.99892 0 
2214.291 -65.583614942 396.8421 2955.512 21.242944003 396.8421 158.0786 -16.315625764 396.8421 
147.0109 -0.45378832526 396.8421 143.3217 9.7027005608 396.8421 142.09 20.080494667 396.8421 
144.5505 34.731401548 396.8421 148.2398 43.090076177 396.8421 155.621 53.907242285 396.8421 
171.5701 69.328081192 396.8421 174.3652 -30.77151334 396.8421 2124.254 -74.308094802 396.8421 
200.2206 -46.763832305 396.8421 227.9488 -59.626908926 396.8421 256.8748 -70.426335994 396.8421 
290.3647 -80.770331299 396.8421 334.981 -92.074758663 396.8421 394.7733 -104.12166703 396.8421 
476.3434 -116.55108022 396.8421 587.0114 -128.24998603 396.8421 730.1145 -137.19768912 396.8421 
899.0676 -141.40089076 396.8421 1051.602 -140.84960018 396.8421 1169.853 -138.21709732 396.8421 
1267.221 -134.85273146 396.8421 1363.188 -130.62353037 396.8421 1471.452 -124.89778086 396.8421 
1604.657 -116.63902166 396.8421 1751.55 -106.17894731 396.8421 1873.891 -96.509350768 396.8421 
2263.949 -60.609222722 396.8421 2339.792 -52.789458157 396.8421 2445.918 -41.393311212 396.8421 
2575.338 -26.764469678 396.8421 2702.515 -11.574718826 396.8421 2790.992 -0.50652018947 396.8421 
2852.473 7.4384607626 396.8421 2895.4 13.113399761 396.8421 2927.431 17.418201505 396.8421 
196.807 86.05714596 396.8421 223.3682 99.280536073 396.8421 250.7983 110.36081548 396.8421 
279.4994 120.12737308 396.8421 311.0855 129.33220234 396.8421 348.0705 138.57008858 396.8421 
393.7383 148.22261276 396.8421 455.8617 158.97277449 396.8421 546.2162 170.92630971 396.8421 
659.8003 181.3539291 396.8421 809.846 189.34647437 396.8421 1014.485 192.50821895 396.8421 
1205.528 189.4974317 396.8421 1370.477 183.33745261 396.8421 1555.851 173.23817522 396.8421 
1718.696 162.02984193 396.8421 1831.49 153.13927004 396.8421 2000.426 138.25225306 396.8421 
2142.278 124.38442623 396.8421 2199.537 118.44496784 396.8421 2362.236 100.50914872 396.8421 
2475.539 87.089448416 396.8421 2610.501 70.085780054 396.8421 2726.16 54.601712295 396.8421 
2807.613 43.170544095 396.8421 2862.05 35.278990322 396.8421 2898.509 29.877970802 396.8421 
2927.749 25.478243694 396.8421 1873.106 149.64218356 396.8421 1463.165 178.67025946 396.8421 
1538.054 -120.92501257 396.8421 1637.272 167.88624001 396.8421 1678.104 -111.57458151 396.8421 
1957.846 142.17521359 396.8421 2072.22 131.38561728 396.8421 1288 186.7841091 396.8421 
1961.524 -89.093289698 396.8421 2047.334 -81.45701173 396.8421 1770.393 158.06388944 396.8421 
2171.038 -69.822362151 396.8421 2301.989 107.33332874 396.8421 2250.655 112.97842074 396.8421 
1812.721 -101.44699211 396.8421 1803.29 155.44366513 396.8421 1915.411 145.97160768 396.8421 
2036.686 134.82349175 396.8421 2107.61 127.88569901 396.8421 2170.909 121.4388689 396.8421 
2284.511 -42.102833597 793.6842 3000.027 39.205895549 793.6842 299.6143 0.11793330046 793.6842 
288.9304 15.341681084 793.6842 285.3691 25.112184246 793.6842 284.1801 35.112571937 793.6842 
286.5551 49.258810416 793.6842 290.1167 57.344821162 793.6842 297.2417 67.826334806 793.6842 
312.6379 82.804042631 793.6842 315.336 -13.71572534 793.6842 2197.597 -50.38262462 793.6842 
340.2947 -28.969700725 793.6842 367.0612 -41.196137342 793.6842 394.9839 -51.427624745 793.6842 
427.3123 -61.19477628 793.6842 470.3812 -71.82540916 793.6842 528.0998 -83.091623078 793.6842 
606.8411 -94.620616756 793.6842 713.6708 -105.32332123 793.6842 851.8104 -113.27426198 793.6842 
1014.904 -116.6321301 793.6842 1162.147 -115.57125386 793.6842 1276.298 -112.68718426 793.6842 
1370.288 -109.20116009 793.6842 1462.927 -104.92259658 793.6842 1567.436 -99.220845198 793.6842 
1696.021 -91.101243202 793.6842 1837.82 -80.928440883 793.6842 1955.917 -71.601064752 793.6842 
2332.447 -37.394272433 793.6842 2405.659 -30.008690209 793.6842 2508.105 -19.277645155 793.6842 
2633.037 -5.5514285194 793.6842 2755.801 8.6519699043 793.6842 2841.209 18.974754959 793.6842 
2900.561 26.372635169 793.6842 2941.997 31.651332798 793.6842 2972.917 35.652701143 793.6842 
336.9995 99.10269371 793.6842 362.6396 112.02631586 793.6842 389.1182 122.88572945 793.6842 
416.8239 132.48309621 793.6842 447.3145 141.55297826 793.6842 483.0167 150.68267578 793.6842 
527.1009 160.25680011 793.6842 587.0697 170.97219834 793.6842 674.2905 182.97987533 793.6842 
783.9349 193.59485106 793.6842 928.7766 201.96452326 793.6842 1126.317 205.77495371 793.6842 
1310.735 203.43306027 793.6842 1469.963 197.85992218 793.6842 1648.908 188.40122498 793.6842 
1806.105 177.72208038 793.6842 1914.987 169.1731922 793.6842 2078.064 154.75329224 793.6842 
2214.996 141.23205274 793.6842 2270.269 135.42003546 793.6842 2427.326 117.80590754 793.6842 
2536.699 104.57443465 793.6842 2666.98 87.756692739 793.6842 2778.628 72.39927462 793.6842 
2857.255 61.039618326 793.6842 2909.806 53.187904799 793.6842 2945.001 47.810101334 793.6842 
2973.224 43.427041043 793.6842 1955.16 165.79629272 793.6842 1559.437 193.51696963 793.6842 
1631.729 -95.302868704 793.6842 1727.505 183.31865127 793.6842 1766.921 -86.163296012 793.6842 
2036.96 158.56381354 793.6842 2147.368 148.06742926 793.6842 1390.347 201.01379367 793.6842 
2040.511 -64.48622115 793.6842 2123.346 -57.189724967 793.6842 1856.009 173.91550082 793.6842 
2242.759 -46.12195245 793.6842 2369.167 124.51798945 793.6842 2319.614 130.0610147 793.6842 
1896.869 -76.356146556 793.6842 1887.765 171.39429841 793.6842 1995.998 162.24459371 793.6842 
2113.066 151.41725311 793.6842 2181.531 144.65262064 793.6842 2242.634 138.3511266 793.6842 
2354.732 -23.60542764 1190.526 3044.539 53.676480273 1190.526 441.15 12.268306391 1190.526 
430.8497 26.873267315 1190.526 427.4164 36.262998861 1190.526 426.2701 45.885914391 1190.526 
428.5601 59.518395579 1190.526 431.9934 67.321665978 1190.526 438.8627 77.449024571 1190.526 
453.7057 91.945940845 1190.526 456.3069 -0.97353845025 1190.526 2270.94 -31.558091861 1190.526 
480.3688 -15.538227465 1190.526 506.1737 -27.18045672 1190.526 533.0934 -36.897971508 1190.526 
564.26 -46.149516437 1190.526 605.7815 -56.18554041 1190.526 661.4265 -66.772491786 1190.526 
737.3385 -77.530796353 1190.526 840.33 -87.396132573 1190.526 973.5064 -94.526324237 1190.526 
1130.74 -97.203464729 1190.526 1272.693 -95.740600192 1190.526 1382.742 -92.661739771 1190.526 
1473.356 -89.083302255 1190.526 1562.666 -84.768540702 1190.526 1663.42 -79.086836491 1190.526 
1787.385 -71.07477465 1190.526 1924.09 -61.119540947 1190.526 2037.944 -52.048595474 1190.526 
2400.946 -19.091933273 1190.526 2471.527 -12.024475372 1190.526 2570.292 -1.7796614565 1190.526 
2690.735 11.287937155 1190.526 2809.091 24.772371054 1190.526 2891.43 34.552058228 1190.526 
2948.647 41.551307519 1190.526 2988.597 46.541121465 1190.526 3018.403 50.321306025 1190.526 
477.1918 107.75748192 1190.526 501.9109 120.32394851 1190.526 527.4382 130.90518211 1190.526 
554.1485 140.27517692 1190.526 583.5435 149.14807719 1190.526 617.963 158.09973356 1190.526 
660.4633 167.51278015 1190.526 718.2775 178.0873352 1190.526 802.3645 190.00780791 1190.526 
908.0698 200.65354417 1190.526 1047.707 209.22907156 1190.526 1238.151 213.51954908 1190.526 
1415.942 211.75596956 1190.526 1569.449 206.74298455 1190.526 1741.965 197.95186565 1190.526 
1893.514 187.87490685 1190.526 1998.484 179.74524198 1190.526 2155.702 165.94977378 1190.526 
2287.714 152.94522591 1190.526 2341.001 147.33914935 1190.526 2492.415 130.30055109 1190.526 
2597.858 117.46097138 1190.526 2723.46 101.10035686 1190.526 2831.095 86.126821534 1190.526 
2906.899 75.033507563 1190.526 2957.56 67.358236844 1190.526 2991.49 62.097928982 1190.526 
3018.699 57.808745944 1190.526 2037.214 176.52280283 1190.526 1655.708 202.73032511 1190.526 
1725.403 -75.211534388 1190.526 1817.738 193.16939082 1190.526 1855.738 -66.233024764 1190.526 
2116.075 169.60365354 1190.526 2222.516 159.52646157 1190.526 1492.694 209.61150592 1190.526 
2119.498 -45.157873802 1190.526 2199.357 -38.112963003 1190.526 1941.625 184.26040246 1190.526 
2314.479 -27.463111359 1190.526 2436.346 136.80125003 1190.526 2388.573 142.16256129 1190.526 
1981.017 -56.667026847 1190.526 1972.24 181.8615069 1190.526 2076.584 173.12769196 1190.526 
[...]
POINT_DATA 1740
FIELD FieldData 1
Pressure 1 1740 double
3.1030531592 3.0188098868 3.0093188412 2.9864492007 2.9753510737 2.9516573674 2.9676646 2.985974228 3.0180332002 
3.0307694996 3.0123852699 3.1066497711 3.0366591146 3.0508914515 3.0674405985 3.0660181774 3.0828470134 3.0875920234 
3.1085355419 3.1125656114 3.1305573253 3.1386223204 3.1399284162 3.144188257 3.1388824017 3.1346591031 3.1315615053 
3.1278484221 3.1218221787 3.1168440489 3.1002763631 3.0973353056 3.0916366899 3.0841598875 3.0732462526 3.0638035974 
3.0532335453 3.0454417332 3.0346998108 3.0668073373 3.0797634016 3.0921751881 3.1047770226 3.1093172494 3.1188932213 
3.1259839894 3.1343780113 3.150827228 3.1644991224 3.1805965578 3.1925210689 3.1999455513 3.2066954224 3.2127096456 
3.2170087512 3.2199515068 3.2213536528 3.2230627446 3.1400156419 3.0874868028 3.0829261704 3.0734908366 3.0637671762 
3.0539984198 3.0436218261 3.0369417453 3.0348131252 3.2201295716 3.2100674115 3.1303601954 3.2139308914 3.1249324718 
3.2209366623 3.2220891739 3.206573395 3.113060173 3.109670066 3.2176403338 3.1049059951 3.0930706658 3.0933753672 
3.1193220406 3.2191047004 3.2211075507 3.222370028 3.2227638048 3.2338587493 3.0996040172 3.023608355 3.0259177006 
2.9986668167 3.0060454475 2.984076699 2.9948801913 3.0079411801 3.0344969433 3.0526193969 3.0369266869 3.1036408577 
3.056403262 3.0691322998 3.0825639184 3.0858941505 3.1015651213 3.110131572 3.1234026969 3.128398489 3.13781886 
3.1415665164 3.1431749361 3.1428424759 3.1381618151 3.1336055677 3.1285336855 3.1242964055 3.1188934446 3.1138527576 
3.0972598112 3.0935847242 3.0878821302 3.0805908283 3.0696091114 3.0602074582 3.0501961448 3.0431947966 3.0253180158 
3.0852735694 3.1054496357 3.1167871461 3.1257387713 3.1343966043 3.1396005695 3.1451408098 3.1549923051 3.1678242874 
3.1785580026 3.1876400933 3.1961122648 3.2030306587 3.2099622548 3.2136372093 3.2170724211 3.2197840247 3.2227768675 
3.2182025479 3.0842052955 3.0933874315 3.0865048886 3.0775167893 3.0670485835 3.0571435627 3.0462328323 3.0401134331 
3.0414251483 3.2206041451 3.2122153017 3.1273755754 3.2157733507 3.121364079 3.2220296638 3.2237745209 3.2082146448 
3.1100091159 3.1065310128 3.2182061226 3.1019712646 3.0936128937 3.0891221902 3.1167131181 3.2190439809 3.2213676123 
3.2236234316 3.2242764152 3.1468380507 3.0970752975 3.0228588904 3.0275540686 3.0012648449 3.0023634126 2.9828661351 
2.9975655431 3.0102701829 3.038060629 3.0590506079 3.044853563 3.1012000699 3.0595112743 3.0785768997 3.0965240078 
3.1022870462 3.1153714844 3.1233692433 3.1351312128 3.1400778351 3.1471322155 3.1485423052 3.1466795761 3.1436007417 
3.1372126397 3.1318483381 3.1267335121 3.1215395479 3.1164632812 3.1115882894 3.0948825495 3.091269703 3.0856085732 
3.0782708356 3.0672762239 3.0576602872 3.0483252425 3.0414728638 3.0277224948 3.0907929086 3.1128225474 3.1310315082 
3.140384978 3.1545325872 3.1614214644 3.1710022344 3.175250387 3.1841975579 3.1946031042 3.200007478 3.2063372374 
3.209605548 3.2168909145 3.2201374765 3.2212631003 3.2234647427 3.2257225878 3.0893395984 3.0819369717 3.0864560697 
3.0821445594 3.0749056946 3.0651728693 3.0560839027 3.0460561936 3.03909653 3.0412559846 3.2240099477 3.2182346216 
3.1247121847 3.2210611152 3.1188391162 3.2249527356 3.2260984193 3.2139812669 3.1078214252 3.1040926358 3.2218113678 
3.0996095932 3.0877765211 3.0862386429 3.1141381587 3.2223271107 3.2247014856 3.2261443107 3.2308024533 3.0783790562 
3.0953267337 3.0232666689 3.0286144282 3.001361591 3.0030433196 2.9811790216 2.9921299664 3.0059182486 3.0385217042 
3.0594417659 3.0454941249 3.0991672845 3.0658755886 3.0832078635 3.1023384043 3.1103098561 3.1229268933 3.1304365246 
3.1420703653 3.1482117737 3.1533176202 3.1524375641 3.1485775453 3.1438691726 3.1367701511 3.1312463212 3.1256748059 
3.1200412768 3.1144341303 3.1095469829 3.0931176992 3.0894769552 3.0842078084 3.0767751192 3.0663665899 3.0565467905 
3.0479656601 3.040894158 3.0291974227 3.0940337126 3.1175404057 3.1333386157 3.1460145543 3.1522941531 3.1641934603 
3.1772740537 3.1858305033 3.1942013277 3.2057603209 3.2120022914 3.2167975435 3.2188561265 3.2255056397 3.2279331177 
3.2284579607 3.2300190509 3.2313595122 3.0880696656 3.0899521351 3.0873521512 3.082852218 3.0751332927 3.0652676621 
3.0557430557 3.0465191519 3.0389778037 3.0417812803 3.2301620871 3.2267284401 3.1233961123 3.2286447195 3.1170453238 
3.2307936312 3.2222466894 3.2227457139 3.1059519117 3.1022312311 3.2288794072 3.0974694096 3.0887158272 3.0888140399 
3.1118255288 3.229081091 3.2306565407 3.231759769 3.0918999937 3.0910593824 3.0938195357 3.0243564429 3.0308025791 
3.0021589896 3.0065740917 2.9849205709 2.9941492354 3.0067229419 3.0402667434 3.0608445017 3.0469612048 3.0976502169 
3.0685978325 3.0860191258 3.103059044 3.112503999 3.1252129113 3.1353743126 3.1452083061 3.1518475588 3.1567085585 
3.1541691422 3.1490099321 3.1429527657 3.1354913642 3.1297761915 3.1240206215 3.1184703828 3.112803572 3.1076631228 
3.0916127011 3.0879508366 3.0830442375 3.0756345608 3.065603754 3.0559822881 3.0477425286 3.0404207538 3.0297918559 
3.0953530343 3.1191491692 3.1344564275 3.1474696509 3.1573240129 3.1681144902 3.1795803375 3.1855477381 3.1968483248 
3.2103252574 3.2202881615 3.2243848545 3.2273302559 3.2336510479 3.2355363128 3.2357045478 3.2371432507 3.2386603801 
3.0915218268 3.0901825337 3.089427052 3.0849250352 3.0776493804 3.0676326221 3.0579629431 3.0488395121 3.0411017572 
3.0430945582 3.2372066888 3.2347951726 3.1218826773 3.2360252553 3.1155564463 3.2377097465 3.1570143244 3.2310139947 
3.1042367707 3.1006835899 3.2361770254 3.0957057319 3.0908382021 3.0904832498 3.1100551048 3.2364154854 3.2375165584 
3.2369386461 3.088641868 3.0932759119 3.0924939046 3.0250316303 3.0318370845 3.0027440132 3.0075794183 2.9858623007 
2.995328793 3.0082132718 3.040994845 3.0628267767 3.0485029731 3.0963083927 3.0701358304 3.0883668356 3.1042872361 
3.11433608 3.1269770861 3.1381581467 3.1480867536 3.155650996 3.1591471736 3.1553793231 3.1488033755 3.14168965 
3.1341741525 3.1283078146 3.1224340628 3.116962382 3.111320776 3.1062852717 3.0903246724 3.0867077772 3.0819820524 
3.0746445168 3.0648747401 3.0552434205 3.0472351086 3.0398037488 3.0299123627 3.0967981666 3.1210199326 3.1359466093 
3.1489373825 3.158320761 3.1699440732 3.1826378618 3.1901089285 3.2016706084 3.2147137234 3.2262620723 3.2324124156 
3.2352121599 3.2418652265 3.2437891675 3.2433272748 3.2441115796 3.2448234138 3.0875487308 3.0899978245 3.0904304516 
3.0860308279 3.0790803034 3.0692025853 3.0597393316 3.0506717717 3.0427525101 3.0447909961 3.2442280363 3.2427584111 
3.1204263478 3.2439122065 3.1140528294 3.2444664602 3.0768080805 3.2388733648 3.1028863138 3.09941989 3.2435012064 
3.094217801 3.0919401103 3.0910357111 3.1085473138 3.243620631 3.2441782601 3.2423121181 3.0842717639 3.0889801405 
3.0917070706 3.0244244789 3.0321309926 3.0029267696 3.0071249297 2.9858324271 2.9951521139 3.0085273075 3.0411818297 
3.0634806166 3.0490590798 3.0954242841 3.07076295 3.0895360049 3.1052901874 3.1158722039 3.128402739 3.140453741 
3.1497416039 3.1576389978 3.1609738779 3.1561015438 3.1484571532 3.1406354372 3.1333383351 3.1273085709 3.1214834488 
3.1156193661 3.1102965547 3.1052764126 3.0894917373 3.0859437044 3.0812876558 3.0740183138 3.064379795 3.0546675123 
3.0467438401 3.0392578155 3.029895903 3.0975287113 3.1218891946 3.1371679314 3.15007256 3.1598763924 3.1714523976 
3.1838910754 3.1922864543 3.2042677763 3.2181012155 3.2302892623 3.2379747839 3.2422260248 3.2491366685 3.2509722266 
3.2513052912 3.251404501 3.2511948513 3.0884413718 3.0892920568 3.0882988698 3.083828621 3.0771897314 3.0677945727 
3.0586670187 3.0498530005 3.041819843 3.0443656857 3.25131639 3.2509428952 3.1192025319 3.2515896322 3.1129146306 
3.2517057292 3.086090061 3.2460564511 3.101902038 3.0985164616 3.2509826016 3.0934341873 3.089865182 3.0891323479 
3.1075670123 3.2510164925 3.2517050083 3.2143386492 3.0865079696 3.0884669039 3.0912737299 3.0230248341 3.0324339775 
3.0031133227 3.007318077 2.986361377 2.9952190772 3.0088055854 3.0415774536 3.0638673984 3.0492775779 3.0948694922 
3.0711316817 3.0898960763 3.1054641182 3.1164726508 3.1290002626 3.1416839526 3.1506547864 3.1585679777 3.1622329785 
3.1565902457 3.1482556376 3.1400944412 3.1331164069 3.126825469 3.1211333618 3.1149057572 3.1099131505 3.1049083014 
3.0890914577 3.0856729018 3.081041943 3.0738290378 3.0642172318 3.0544287615 3.0465481223 3.0390542824 3.0301103934 
3.0981067588 3.1225545301 3.1379674512 3.1509484184 3.1608514888 3.172497375 3.1848842461 3.1940595653 3.2063690957 
3.220259402 3.2330715681 3.2422510933 3.2474933303 3.2553053245 3.2587012456 3.2582961203 3.2586100598 3.2603022872 
3.0840963202 3.085218672 3.0838227225 3.0793840491 3.0729270564 3.0639724913 3.0551756075 3.0467912517 3.0388903416 
3.0418839282 3.2591956612 3.2571933916 3.1185698305 3.2585304388 3.112422437 3.2596072829 3.0830091877 3.2515624896 
3.1014938143 3.0982329831 3.2583410698 3.0929258538 3.0850868884 3.0840039027 3.1072598749 3.2583573095 3.2596499678 
3.0962657801 3.0836148073 3.0839508014 3.0912305142 3.0220993186 3.0327195091 3.003349548 3.0081978406 2.9870645274 
2.9955512948 3.0092792913 3.0422013183 3.0644444378 3.0493304 3.0949347746 3.0710629784 3.0897944756 3.1052514328 
3.1166818182 3.129185111 3.1423233935 3.1511178036 3.1591017451 3.1631307146 3.1570660063 3.148379873 3.1401039475 
3.1333744334 3.126878151 3.12128909 3.1149668613 3.1100381619 3.1049643889 3.0892093629 3.0857744172 3.0811315343 
3.0739846574 3.0643438441 3.0546382923 3.0467084237 3.0392314499 3.0301213436 3.0989582474 3.1233140671 3.1389743368 
3.1520444456 3.1619759987 3.1737020806 3.1859435511 3.1955709615 3.2082918219 3.2221203475 3.2352367516 3.2453051172 
3.2513179117 3.2595487208 3.2636828413 3.2645261686 3.2653619666 3.2720925612 3.0789711831 3.0797798578 3.0795303229 
3.0754024881 3.0691512709 3.0602748148 3.0516587533 3.0436395926 3.0360388284 3.039106603 3.2654119563 3.2621661463 
3.1186400412 3.2646235416 3.1125022419 3.2661630763 3.0745521483 3.2555744584 3.1015880993 3.0982203997 3.2646293446 
3.0929206391 3.0807513294 3.0798572294 3.1073449342 3.2647009485 3.265802188 3.079399887 3.0775455069 3.0791198636 
3.0917539884 3.021933776 3.0330947135 3.0035286841 3.0090271642 2.9877064347 2.9959984426 3.0098470214 3.0430245066 
3.0652638551 3.0488189509 3.0955976946 3.0705479141 3.0894445479 3.1049869595 3.1167081016 3.1291082117 3.1425290407 
3.1510762055 3.1595260418 3.1638049119 3.1576208532 3.1489240748 3.1405597981 3.1340548654 3.1274519492 3.1219392601 
3.1155753929 3.1105704854 3.1054665558 3.0897374726 3.0863205392 3.0815560665 3.074461999 3.0647577337 3.0550827424 
3.0470863313 3.0396521476 3.0301697041 3.1000972846 3.1243346214 3.1402958839 3.1534573074 3.1634280472 3.1751952777 
3.1873250381 3.197292128 3.2103458878 3.2240490349 3.2372838805 3.2477553353 3.2541109541 3.2628145536 3.2675793382 
3.2689859396 3.2697608352 3.2813601423 3.0772745484 3.0771252369 3.0766102548 3.0727725126 3.0667406308 3.0578670777 
3.049397135 3.0415755744 3.0344353445 3.0373162722 3.2701858348 3.2656164467 3.1192532005 3.2686113225 3.1131265004 
3.270942015 3.0766743094 3.2584541088 3.1020411427 3.0985828093 3.2693507416 3.0935430895 3.0777248068 3.0772081137 
3.1079532265 3.2694088064 3.2710210401 3.0786943384 3.0744327659 3.0763479988 3.092673087 3.0223610707 3.0334506911 
3.0036544449 3.0097653448 2.988382013 2.9965006115 3.0104105662 3.04392618 3.0661933299 3.0481404989 3.0966758995 
3.0697828927 3.0886389361 3.1043752702 3.1163429588 3.1286090339 3.1420635309 3.1509045833 3.1593400449 3.1643413801 
3.1583472607 3.1498951171 3.1416211499 3.1352268165 3.128530262 3.1230439761 3.1166424798 3.111586365 3.1064364905 
3.0906589401 3.0872169253 3.0823241802 3.075227371 3.0654118919 3.055716893 3.0476056233 3.0402374517 3.0303035748 
3.1014446939 3.1256311912 3.1419090908 3.1551611481 3.1651640382 3.1769683769 3.189040098 3.1992252405 3.2125705733 
3.2261462744 3.2394281052 3.2500744398 3.2564509459 3.2653570127 3.2705329985 3.2723794958 3.2733020974 3.2851154053 
3.0752017692 3.075411688 3.0743201214 3.070593326 3.0647810383 3.0560586107 3.0478227831 3.0401268621 3.0334878016 
3.0361583575 3.2739406579 3.2683934547 3.120301797 3.271781612 3.1141684393 3.2747815162 3.0743317605 3.2607285079 
3.1029474586 3.0995752546 3.2727676459 3.0946181403 3.0755252633 3.0754062892 3.1090021705 3.2729281624 3.2748681593 
3.0799840878 3.0706559309 3.075086884 3.0937903388 3.0227476605 3.0337371015 3.0037147037 3.0105539986 2.989120274 
2.9971346021 3.0110229917 3.0447486027 3.0672089623 3.0471808561 3.0977744871 3.0687580842 3.0874898529 3.1034605776 
3.1155956713 3.127793231 3.1411327294 3.1506267406 3.1588287521 3.164828492 3.159315149 3.1512832122 3.1430951402 
3.1367113636 3.1299155262 3.1244210827 3.1180260216 3.1128420624 3.1076460955 3.0917219892 3.088231123 3.0832291097 
3.0760722739 3.0661522136 3.0564045619 3.0481683681 3.0408565921 3.0304079994 3.102913018 3.1271805347 3.1437369928 
3.157088068 3.1671205386 3.1789557483 3.1910446338 3.2013730487 3.2150155636 3.2284815256 3.2417349625 3.2524308913 
3.258732743 3.2675522164 3.273074663 3.2751293515 3.2760910581 3.292967865 3.0721459705 3.0727052144 3.0720044246 
3.0685761845 3.062971456 3.0544064528 3.0463947043 3.0388393631 3.0326084653 3.0351454549 3.2768160734 3.2707621554 
3.1216344041 3.2742831001 3.1154227177 3.2776606013 3.0710275832 3.2628871053 3.1040308324 3.1005910585 3.2754749417 
3.0957738975 3.0730491895 3.0729252025 3.1102629604 3.2756805422 3.2777306367 3.0802111186 3.0674936812 3.0721921094 
3.0948448247 3.0230333097 3.0339273378 3.0036292594 3.0105151171 2.9896445646 2.9979147118 3.0117937591 3.0456562763 
3.0682014295 3.0460418769 3.0987828954 3.0675158269 3.0862005426 3.1021562235 3.1142575963 3.1265491818 3.1399819766 
3.1498275516 3.1592105103 3.1649137594 3.1601517217 3.1527137072 3.1446008434 3.1381912801 3.1313106785 3.1257483966 
3.1194549217 3.1140603892 3.1088491825 3.0927172961 3.0891628265 3.0840656007 3.0768092179 3.0668003658 3.0569988066 
3.0486566957 3.0413796822 3.0304845909 3.1044977633 3.1289810782 3.1456451022 3.1591666413 3.1692330988 3.1810995287 
3.1932914789 3.2037370721 3.2177542006 3.2310595061 3.2442845908 3.2549784383 3.2611475479 3.2697828937 3.2755112473 
3.2776630422 3.2785286906 3.2990690929 3.0717462382 3.0717335672 3.0705155059 3.0671301462 3.0613949028 3.0529801966 
3.0451231401 3.0376304461 3.0317737515 3.0341958769 3.2793155629 3.2730834923 3.1230372789 3.2766776135 3.116690528 
3.2805364974 3.0691304578 3.2651581617 3.1051013507 3.1015875612 3.2779307784 3.0968159506 3.0717665132 3.0717137346 
3.1114829048 3.27812903 3.2800581085 3.0644966638 3.0687458396 3.0715744341 3.0957723684 3.0233206158 3.0341427533 
3.0035913857 3.0101643652 2.9901700263 2.9990766992 3.0128041704 3.0467870958 3.0693604139 3.0447635526 3.0997385469 
3.0661292854 3.0849835383 3.1002036519 3.112131043 3.1248664812 3.1381550615 3.149334613 3.1579171376 3.1648928499 
3.1609843058 3.1541467995 3.1461745987 3.1396279597 3.1326378921 3.126942304 3.120744195 3.1152434444 3.1099584551 
3.0936211141 3.0900112763 3.0848105394 3.0774608817 3.0673593569 3.0574920067 3.0490546535 3.0417892307 3.030492291 
3.1063244475 3.1310814501 3.1476578213 3.1614023991 3.1714706485 3.183438281 3.1957997188 3.2062963012 3.2207332875 
3.2338249121 3.2470003208 3.2575788149 3.2636988648 3.2721420037 3.2779814896 3.2802046795 3.2810235621 3.2541278651 
3.0717088927 3.071156712 3.0691572433 3.0656380005 3.0597465826 3.0517225484 3.0440800738 3.0366046376 3.0311255276 
3.0334846484 3.2818429088 3.275461516 3.124373358 3.2791259625 3.1179862468 3.2836585438 3.0715269774 3.2675896662 
3.1062122036 3.1025709973 3.2804585317 3.0977819117 3.0704898724 3.0708380954 3.1126214844 3.2806251094 3.2828434803 
3.0715041986 3.0705700943 3.0713201381 3.0967034749 3.0235387659 3.034001636 3.0037980607 3.010435673 2.9909115108 
3.0005894364 3.0140586608 3.0479827802 3.0707575075 3.0433189866 3.1007564398 3.0646693329 3.0836078775 3.0983859097 
3.1101753841 3.1231197732 3.1362795378 3.1485120693 3.1581233948 3.1650171587 3.162253477 3.1560952664 3.1481635044 
3.1412277607 3.1340308668 3.1280610732 3.122050762 3.1162679206 3.1110378891 3.0945278434 3.090863125 3.0855763413 
3.078124606 3.0678976581 3.0579094865 3.0493845181 3.0420462525 3.0304325297 3.1081434354 3.133272079 3.1497154421 
3.1636219003 3.1737060974 3.1856601092 3.1983216158 3.2088406074 3.2235328617 3.2365303574 3.2495153091 3.2602206973 
3.266370593 3.2746466681 3.2807951863 3.2833094055 3.2842366059 3.0796023499 3.0691273926 3.0692964919 3.0679847631 
3.0646818201 3.0590092096 3.0513502993 3.0438779198 3.0365846522 3.0312800771 3.0334596952 3.2852341103 3.2780675463 
3.1256710351 3.2819310208 3.1192578442 3.2861610266 3.0701392252 3.2701935806 3.1073323862 3.1036296755 3.2833579358 
3.0987600069 3.0694164763 3.0696105423 3.1136973248 3.2836874635 3.2850084421 3.0699980687 3.069130642 3.0688759451 
3.0976326102 3.0242780044 3.0325227807 3.0032373543 3.0107545373 2.9907273487 3.001761908 3.0150483478 3.0478067296 
3.0715184374 3.0415141517 3.101748582 3.0626820291 3.0816049715 3.0967233642 3.1086193547 3.1216206479 3.1340440497 
3.1483126052 3.1569995985 3.1655772278 3.164094334 3.1585264332 3.1505782421 3.1430303155 3.1355613623 3.1293232128 
3.1233642643 3.1179086841 3.1122905704 3.0954376682 3.091599079 3.0863146286 3.0786698977 3.0682597496 3.0580756364 
3.0494966521 3.0420198892 3.029655213 3.1093460359 3.1350092193 3.1512825659 3.1651573383 3.1753833752 3.1877096463 
3.2005478086 3.2111227859 3.2258725813 3.2391923539 3.2525804019 3.2628702411 3.2694094593 3.277880793 3.2850790655 
3.28712944 3.2872332459 3.0672416626 3.0700841618 3.0702776098 3.0696126188 3.0659782612 3.0608455262 3.053082801 
3.0455761745 3.0382390213 3.0328294528 3.0350138226 3.2878877069 3.2816443365 3.1270691997 3.2862167351 3.1204748908 
3.2977885759 3.0682912909 3.2732398312 3.1086859424 3.1047817972 3.287319716 3.0996901599 3.0709229079 3.0705652 
3.1150129822 3.2874882726 3.2954738364 3.064552316 3.0695575983 3.0698370491 3.0982760456 3.0247039473 3.0305231062 
3.0010672638 3.0072197668 2.9888524758 3.0011852288 3.0149330504 3.0485468287 3.0721869165 3.0393978819 3.1025033452 
3.0614339781 3.0798752154 3.0963125887 3.1075913952 3.1207624737 3.1320064222 3.1487200279 3.1579435369 3.1672201346 
3.1685691921 3.162180039 3.1538085603 3.1448856789 3.1370831517 3.130420292 3.1240282545 3.1181691606 3.1132533901 
3.096258007 3.0921711925 3.0868863356 3.0792138038 3.0685315782 3.0579939717 3.0493135415 3.0414943673 3.028326009 
3.1111737999 3.1365049191 3.1531707641 3.1679383731 3.1779397656 3.1903242612 3.2030066491 3.2140932405 3.2300390613 
3.2436544833 3.2568943848 3.2702025639 3.2744995619 3.2824031447 3.288053294 3.288654113 3.2866671182 3.0660861108 
3.0733267408 3.0726274068 3.0725889874 3.0699464136 3.0644703075 3.0560788123 3.0486666586 3.0413455452 3.0354818523 
3.0380076173 3.2886830229 3.2858640239 3.1276833268 3.2881749567 3.1210969723 3.0538224401 3.0717690052 3.2779300573 
3.109034878 3.1054523459 3.2877909277 3.1004029491 3.0737267539 3.0737250638 3.1159902317 3.2871759249 3.2260421424 
3.0650968113 3.0724002426 3.0730978397 3.0984607813 3.0279653448 3.0320724053 3.0041412814 3.0077413287 2.9906161247 
3.0050839738 3.0190331832 3.0574001048 3.0763762024 3.0422481547 3.1014189068 3.0603847086 3.0801431133 3.096461766 
3.1093822242 3.1226587569 3.1341025527 3.1530801561 3.1725006781 3.1746141546 3.173377918 3.1652207269 3.1544093322 
3.1442513709 3.1364449897 3.1291975977 3.1228934995 3.1164111561 3.1111803573 3.095202208 3.0926100899 3.0873401592 
3.0779525675 3.0685738815 3.0573809423 3.0484657689 3.0396510637 3.0274155385 3.1116786393 3.1379603383 3.160066532 
3.1745090139 3.1834673172 3.2012481992 3.2102879523 3.2205795006 3.2377386821 3.2505677595 3.2667725265 3.2748255602 