# vtk DataFile Version 4.2
vtk output
ASCII
DATASET POLYDATA
POINTS 6370 float
2462.24 -3172.16 5800 2464.84 -3177.15 5800 2493.84 -3173.34 5800 
2496.8 -3172.16 5800 2455.46 -3159.16 5800 2522.84 -3160.84 5800 
2526.35 -3159.16 5800 2448.78 -3146.16 5800 2551.85 -3146.89 5800 
2553.37 -3146.15 5800 2442.92 -3133.16 5800 2580.38 -3133.15 5800 
2437.24 -3120.16 5800 2580.85 -3132.93 5800 2607.39 -3120.15 5800 
2431.56 -3107.16 5800 2435.84 -3116.96 5800 2609.85 -3118.97 5800 
2634.4 -3107.15 5800 2425.88 -3094.15 5800 2638.85 -3105.01 5800 
2661.42 -3094.15 5800 2420.2 -3081.15 5800 2667.85 -3091.05 5800 
2688.43 -3081.14 5800 2414.52 -3068.15 5800 2696.86 -3077.09 5800 
2715.44 -3068.14 5800 2408.84 -3055.15 5800 2725.86 -3063.13 5800 
2742.46 -3055.14 5800 2403.16 -3042.15 5800 2406.85 -3050.59 5800 
2754.86 -3049.17 5800 2769.47 -3042.14 5800 2397.48 -3029.15 5800 
2783.86 -3035.21 5800 2796.48 -3029.14 5800 2391.8 -3016.15 5800 
2812.86 -3021.25 5800 2818.73 -3016.13 5800 2386.12 -3003.15 5800 
2829.51 -3003.13 5800 2380.44 -2990.15 5800 2835.43 -2990.13 5800 
2374.76 -2977.15 5800 2377.85 -2984.22 5800 2841.35 -2977.13 5800 
2369.08 -2964.15 5800 2841.87 -2975.99 5800 2847.27 -2964.13 5800 
2363.41 -2951.15 5800 2853.19 -2951.13 5800 2357.73 -2938.14 5800 
2859.1 -2938.13 5800 2352.05 -2925.14 5800 2865.02 -2925.13 5800 
2346.37 -2912.14 5800 2348.86 -2917.84 5800 2870.88 -2912.27 5800 
2870.94 -2912.13 5800 2340.69 -2899.14 5800 2876.86 -2899.12 5800 
2335.01 -2886.14 5800 2882.78 -2886.12 5800 2329.33 -2873.14 5800 
2888.7 -2873.12 5800 2323.65 -2860.14 5800 2894.61 -2860.12 5800 
2317.97 -2847.14 5800 2319.86 -2851.47 5800 2899.88 -2848.55 5800 
2900.53 -2847.12 5800 2312.29 -2834.14 5800 2906.45 -2834.12 5800 
2306.61 -2821.14 5800 2912.37 -2821.12 5800 2300.93 -2808.14 5800 
2918.29 -2808.12 5800 2295.25 -2795.14 5800 2924.21 -2795.11 5800 
2289.24 -2782.14 5800 2290.86 -2785.1 5800 2928.89 -2784.83 5800 
2930.12 -2782.11 5800 2269.49 -2769.13 5800 2936.04 -2769.11 5800 
2249.51 -2756.13 5800 2261.87 -2764.18 5800 2941.96 -2756.11 5800 
2229.53 -2743.13 5800 2232.87 -2745.3 5800 2947.88 -2743.11 5800 
2209.55 -2730.13 5800 2953.8 -2730.11 5800 2189.58 -2717.13 5800 
2203.87 -2726.43 5800 2957.89 -2721.11 5800 2959.66 -2717.11 5800 
2168.91 -2704.13 5800 2174.87 -2707.56 5800 2965.26 -2704.11 5800 
2145.24 -2691.13 5800 2145.87 -2691.47 5800 2970.45 -2691.1 5800 
2121.47 -2678.13 5800 2975.46 -2678.1 5800 2097.69 -2665.13 5800 
2116.87 -2675.62 5800 2980.47 -2665.1 5800 2073.91 -2652.13 5800 
2087.87 -2659.76 5800 2985.48 -2652.1 5800 2050.13 -2639.13 5800 
2058.87 -2643.91 5800 2986.9 -2648.4 5800 2990.48 -2639.1 5800 
2026.35 -2626.13 5800 2029.87 -2628.06 5800 2995.49 -2626.1 5800 
2002.57 -2613.13 5800 3000.5 -2613.1 5800 1978.79 -2600.13 5800 
2000.87 -2612.2 5800 3005.51 -2600.1 5800 1971.44 -2587.13 5800 
1971.87 -2589.79 5800 3010.52 -2587.1 5800 1971.71 -2574.13 5800 
3015.53 -2574.09 5800 1971.87 -2566.66 5800 1972.02 -2561.13 5800 
3015.91 -2573.11 5800 3020.54 -2561.09 5800 1972.27 -2548.13 5800 
3025.54 -2548.09 5800 1972.53 -2535.13 5800 3030.55 -2535.09 5800 
1972.8 -2522.13 5800 3037.47 -2522.09 5800 1973.07 -2509.13 5800 
3044.91 -2513.3 5800 3048.34 -2509.09 5800 1973.34 -2496.12 5800 
3061.19 -2496.09 5800 1973.62 -2483.12 5800 3073.92 -2483.49 5800 
3074.33 -2483.08 5800 1973.89 -2470.12 5800 3087.47 -2470.08 5800 
1974.16 -2457.12 5800 3100.6 -2457.08 5800 1974.43 -2444.12 5800 
3102.92 -2454.79 5800 3113.74 -2444.08 5800 1974.7 -2431.12 5800 
3126.88 -2431.08 5800 1974.97 -2418.12 5800 3131.92 -2426.09 5800 
3140.02 -2418.08 5800 1975.24 -2405.12 5800 3153.16 -2405.08 5800 
1975.52 -2392.12 5800 3160.92 -2397.39 5800 3166.29 -2392.07 5800 
1975.79 -2379.11 5800 3179.43 -2379.07 5800 1976.06 -2366.11 5800 
3189.93 -2368.68 5800 3192.57 -2366.07 5800 1976.33 -2353.11 5800 
3205.71 -2353.07 5800 1976.6 -2340.11 5800 3218.84 -2340.07 5800 
1976.87 -2327.11 5800 3218.93 -2339.98 5800 3226.58 -2327.07 5800 
1977.15 -2314.11 5800 3228.65 -2314.07 5800 1977.42 -2301.11 5800 
3230.06 -2301.07 5800 1977.69 -2288.11 5800 3231.47 -2288.06 5800 
1977.96 -2275.11 5800 3232.88 -2275.06 5800 1978.23 -2262.11 5800 
3234.3 -2262.06 5800 1978.5 -2249.1 5800 3235.71 -2249.06 5800 
1978.77 -2236.1 5800 3237.12 -2236.06 5800 1979.05 -2223.1 5800 
3238.53 -2223.06 5800 1979.32 -2210.1 5800 3239.95 -2210.06 5800 
1979.59 -2197.1 5800 3241.36 -2197.06 5800 1979.94 -2184.1 5800 
3242.77 -2184.06 5800 1980.32 -2171.1 5800 3244.18 -2171.06 5800 
1980.7 -2158.1 5800 3245.6 -2158.05 5800 1981.07 -2145.1 5800 
3247.01 -2145.05 5800 1981.49 -2132.1 5800 3247.95 -2136.41 5800 
3248.42 -2132.05 5800 1981.91 -2119.09 5800 3249.83 -2119.05 5800 
1982.33 -2106.09 5800 3251.25 -2106.05 5800 1982.75 -2093.09 5800 
3252.66 -2093.05 5800 1983.16 -2080.09 5800 3254.07 -2080.05 5800 
1983.58 -2067.09 5800 3255.48 -2067.05 5800 1984 -2054.09 5800 
3256.9 -2054.05 5800 1984.42 -2041.09 5800 3258.31 -2041.04 5800 
1984.16 -2028.09 5800 3259.72 -2028.04 5800 1980.96 -2015.09 5800 
3261.13 -2015.04 5800 1977.9 -2002.09 5800 3262.55 -2002.04 5800 
1974.84 -1989.08 5800 3263.96 -1989.04 5800 1971.79 -1976.08 5800 
1971.92 -1976.63 5800 3265.37 -1976.04 5800 1968.73 -1963.08 5800 
3266.78 -1963.04 5800 1965.67 -1950.08 5800 3268.2 -1950.04 5800 
1962.61 -1937.08 5800 3269.6 -1937.04 5800 1959.56 -1924.08 5800 
3270.94 -1924.04 5800 1956.5 -1911.08 5800 3272.17 -1911.03 5800 
1953.44 -1898.08 5800 3273.26 -1898.03 5800 1950.38 -1885.08 5800 
3274.34 -1885.03 5800 1947.32 -1872.08 5800 3275.42 -1872.03 5800 
1944.27 -1859.08 5800 3276.5 -1859.03 5800 1941.21 -1846.08 5800 
1942.92 -1853.37 5800 3276.97 -1853.34 5800 3277.38 -1846.03 5800 
1938.15 -1833.07 5800 3278.09 -1833.03 5800 1935.09 -1820.07 5800 
3278.79 -1820.03 5800 1932.04 -1807.07 5800 3279.48 -1807.03 5800 
1928.98 -1794.07 5800 3280.15 -1794.02 5800 1925.92 -1781.07 5800 
3280.81 -1781.02 5800 1927.58 -1768.07 5800 3281.46 -1768.02 5800 
1928.72 -1755.07 5800 3282.09 -1755.02 5800 1930.38 -1742.07 5800 
3282.71 -1742.02 5800 1933.76 -1729.07 5800 3283.36 -1729.02 5800 
1937.14 -1716.07 5800 3283.75 -1716.02 5800 1940.51 -1703.06 5800 
3284.14 -1703.02 5800 1942.94 -1693.74 5800 1943.89 -1690.06 5800 
3284.53 -1690.02 5800 1947.27 -1677.06 5800 3284.92 -1677.02 5800 
1950.65 -1664.06 5800 3285.31 -1664.01 5800 1954.02 -1651.06 5800 
3285.7 -1651.01 5800 1957.4 -1638.06 5800 3286.09 -1638.01 5800 
1960.78 -1625.06 5800 3286.48 -1625.01 5800 1964.16 -1612.06 5800 
3286.87 -1612.01 5800 1967.54 -1599.06 5800 3287.26 -1599.01 5800 
1970.91 -1586.05 5800 3285.41 -1586.01 5800 1971.95 -1582.07 5800 
1974.37 -1573.05 5800 3281.07 -1573.01 5800 1977.85 -1560.05 5800 
3278.02 -1560.01 5800 1981.31 -1547.05 5800 3276.99 -1553.35 5800 
3276.4 -1547.01 5800 1984.76 -1534.05 5800 3276.56 -1534.01 5800 
1988.19 -1521.05 5800 3277 -1521.37 5800 3277.02 -1521 5800 
1991.63 -1508.05 5800 3277.64 -1508 5800 1995.05 -1495.05 5800 
3278.18 -1495 5800 1996.28 -1482.05 5800 3278.64 -1482 5800 
1997.37 -1469.04 5800 3279.06 -1469 5800 1998.59 -1456.04 5800 
3279.42 -1456 5800 1999.82 -1443.04 5800 3279.75 -1443 5800 
2000.96 -1430.93 5800 2001.04 -1430.04 5800 3280.05 -1430 5800 
2002.27 -1417.04 5800 3280.5 -1417 5800 2003.49 -1404.04 5800 
3280.94 -1403.99 5800 2004.72 -1391.04 5800 3281.38 -1390.99 5800 
2005.95 -1378.04 5800 3281.81 -1377.99 5800 2007.17 -1365.04 5800 
3282.25 -1364.99 5800 2008.4 -1352.03 5800 3282.69 -1351.99 5800 
2009.62 -1339.03 5800 3283.12 -1338.99 5800 2010.77 -1326.03 5800 
3283.56 -1325.99 5800 2011.48 -1313.03 5800 3284 -1312.99 5800 
2012.18 -1300.03 5800 3284.43 -1299.99 5800 2012.87 -1287.03 5800 
3284.87 -1286.99 5800 2013.56 -1274.03 5800 3285.3 -1273.98 5800 
2014.26 -1261.03 5800 3285.74 -1260.98 5800 2014.95 -1248.03 5800 
3286.18 -1247.98 5800 2015.65 -1235.03 5800 3286.61 -1234.98 5800 
2016.34 -1222.02 5800 3287.05 -1221.98 5800 2017.03 -1209.02 5800 
3287.49 -1208.98 5800 2017.73 -1196.02 5800 3287.93 -1195.98 5800 
2018.42 -1183.02 5800 3288.36 -1182.98 5800 2019.12 -1170.02 5800 
3288.83 -1169.98 5800 2019.81 -1157.02 5800 3289.31 -1156.98 5800 
2020.5 -1144.02 5800 3289.8 -1143.97 5800 2021.2 -1131.02 5800 
3290.3 -1130.97 5800 2021.79 -1118.02 5800 3290.8 -1117.97 5800 
2020.39 -1105.02 5800 3291.33 -1104.97 5800 2019.62 -1092.01 5800 
3291.85 -1091.97 5800 2019.03 -1079.01 5800 3291.83 -1078.97 5800 
2018.69 -1066.01 5800 3291.81 -1065.97 5800 2022.28 -1053.01 5800 
3291.82 -1052.97 5800 2025.03 -1040.01 5800 3291.83 -1039.97 5800 
2027.89 -1027.01 5800 3291.84 -1026.97 5800 2029.99 -1017.82 5800 
2030.57 -1014.01 5800 3291.85 -1013.96 5800 2032.53 -1001.01 5800 
3291.85 -1000.96 5800 2034.49 -988.006 5800 3291.99 -987.962 5800 
2036.45 -975.005 5800 2579.74 -974.986 5800 2581.01 -975.24 5800 
2582.52 -974.986 5800 3292.14 -974.961 5800 2038.41 -962.004 5800 
2537.66 -961.987 5800 2552.01 -970.692 5800 2610.02 -969.59 5800 
2639.02 -965.99 5800 2668.02 -962.39 5800 2671.31 -961.982 5800 
3292.28 -961.961 5800 2040.38 -949.003 5800 2520.42 -948.986 5800 
2523.01 -950.591 5800 2697.02 -958.79 5800 2726.02 -955.621 5800 
2755.02 -952.617 5800 2757.35 -948.978 5800 3291.86 -948.959 5800 
2042.34 -936.002 5800 2498.89 -935.986 5800 2763.62 -935.977 5800 
3290.22 -935.959 5800 2044.09 -923 5800 2477.43 -922.986 5800 
2494.01 -932.712 5800 2769.69 -922.975 5800 3288.93 -922.958 5800 
2045.88 -909.999 5800 2455.17 -909.985 5800 2465.01 -915.734 5800 
2775.9 -909.974 5800 3287.04 -909.957 5800 2047.73 -896.998 5800 
2432.92 -896.985 5800 2436.01 -898.796 5800 2782.12 -896.973 5800 
3284.23 -896.956 5800 2049.64 -883.997 5800 2410.66 -883.985 5800 
2784.03 -892.981 5800 2788.52 -883.972 5800 3281.41 -883.955 5800 
2051.61 -870.996 5800 2400.03 -870.984 5800 2407.02 -881.857 5800 
2794.77 -870.971 5800 3278.59 -870.954 5800 2053.63 -857.995 5800 
2394.36 -857.983 5800 2800.76 -857.969 5800 3277.05 -863.816 5800 
[...]
POINT_DATA 6370
SCALARS Pressure double
LOOKUP_TABLE default
3.0932710339 3.0932710339 3.0932710339 3.0932710339 3.0932710339 3.0932710339 3.0932710339 3.0932710339 3.0932710339 
3.0932710339 3.0932710339 3.0932710339 3.0932710339 3.0932710339 3.0932710339 3.0932710339 3.0932710339 3.0932710339 
3.0932710339 3.0932710339 3.0932710339 3.0932710339 3.0932710339 3.0932710339 3.0932710339 3.0932710339 3.0932710339 
3.0932710339 3.0932710339 3.0932710339 3.0932710339 3.0932710339 3.0932710339 3.0932710339 3.0932710339 3.0932710339 
3.0932710339 3.0932710339 3.0932710339 3.0932710339 3.0932710339 3.0932710339 3.0932710339 3.0932710339 3.0932710339 
3.0932710339 3.0932710339 3.0932710339 3.0932710339 3.0932710339 3.0932710339 3.0932710339 3.0932710339 3.0932710339 
3.0932710339 3.0932710339 3.0932710339 3.0932710339 3.0932710339 3.0932710339 3.0932710339 3.0932710339 3.0932710339 
3.0932710339 3.0932710339 3.0932710339 3.0932710339 3.0932710339 3.0932710339 3.0932710339 3.0932710339 3.0932710339 
3.0932710339 3.0932710339 3.0932710339 3.0932710339 3.0932710339 3.0932710339 3.0932710339 3.0932710339 3.0932710339 
3.0932710339 3.0932710339 3.0932710339 3.0932710339 3.0932710339 3.0932710339 3.0932710339 3.0932710339 3.0932710339 
3.0932710339 3.0932710339 3.0932710339 3.0932710339 3.0932710339 3.0932710339 3.0932710339 3.0932710339 3.0932710339 
3.0932710339 3.0932710339 3.0932710339 3.0932710339 3.0932710339 3.0932710339 3.0932710339 3.0932710339 3.0932710339 
3.0932710339 3.0932710339 3.0932710339 3.0932710339 3.0932710339 3.0932710339 3.0932710339 3.0932710339 3.0932710339 
3.0932710339 3.0932710339 3.0932710339 3.0932710339 3.0932710339 3.0932710339 3.0932710339 3.0932710339 3.0932710339 
3.0932710339 3.0932710339 3.0932710339 3.0932710339 3.0932710339 3.0932710339 3.0932710339 3.0932710339 3.0932710339 
3.0932710339 3.0932710339 3.0932710339 3.0932710339 3.0932710339 3.0932710339 3.0932710339 3.0932710339 3.0932710339 
3.0932710339 3.0932710339 3.0932710339 3.0932710339 3.0932710339 3.0932710339 3.0932710339 3.0932710339 3.0932710339 
3.0932710339 3.0932710339 3.0932710339 3.0932710339 3.0932710339 3.0932710339 3.0932710339 3.0932710339 3.0932710339 
3.0932710339 3.0932710339 3.0932710339 3.0932710339 3.0932710339 3.0932710339 3.0932710339 3.0932710339 3.0932710339 
3.0932710339 3.0932710339 3.0932710339 3.0932710339 3.0932710339 3.0932710339 3.0932710339 3.0932710339 3.0932710339 
3.0932710339 3.0932710339 3.0932710339 3.0932710339 3.0932710339 3.0932710339 3.0932710339 3.0932710339 3.0932710339 
3.0932710339 3.0932710339 3.0932710339 3.0932710339 3.0932710339 3.0932710339 3.0932710339 3.0932710339 3.0932710339 
3.0932710339 3.0932710339 3.0932710339 3.0932710339 3.0932710339 3.0932710339 3.0932710339 3.0932710339 3.0932710339 
3.0932710339 3.0932710339 3.0932710339 3.0932710339 3.0932710339 3.0932710339 3.0932710339 3.0932710339 3.0932710339 
3.0932710339 3.0932710339 3.0932710339 3.0932710339 3.0932710339 3.0932710339 3.0932710339 3.0932710339 3.0932710339 
3.0932710339 3.0932710339 3.0932710339 3.0932710339 3.0932710339 3.0932710339 3.0932710339 3.0932710339 3.0932710339 
3.0932710339 3.0932710339 3.0932710339 3.0932710339 3.0932710339 3.0932710339 3.0932710339 3.0932710339 3.0932710339 
3.0932710339 3.0932710339 3.0932710339 3.0932710339 3.0932710339 3.0932710339 3.0932710339 3.0932710339 3.0932710339 
3.0932710339 3.0932710339 3.0932710339 3.0932710339 3.0932710339 3.0932710339 3.0932710339 3.0932710339 3.0932710339 
3.0932710339 3.0932710339 3.0932710339 3.0932710339 3.0932710339 3.0932710339 3.0932710339 3.0932710339 3.0932710339 
3.0932710339 3.0932710339 3.0932710339 3.0932710339 3.0932710339 3.0932710339 3.0932710339 3.0932710339 3.0932710339 
3.0932710339 3.0932710339 3.0932710339 3.0932710339 3.0932710339 3.0932710339 3.0932710339 3.0932710339 3.0932710339 
3.0932710339 3.0932710339 3.0932710339 3.0932710339 3.0932710339 3.0932710339 3.0932710339 3.0932710339 3.0932710339 
3.0932710339 3.0932710339 3.0932710339 3.0932710339 3.0932710339 3.0932710339 3.0932710339 3.0932710339 3.0932710339 
3.0932710339 3.0932710339 3.0932710339 3.0932710339 3.0932710339 3.0932710339 3.0932710339 3.0932710339 3.0932710339 
3.0932710339 3.0932710339 3.0932710339 3.0932710339 3.0932710339 3.0932710339 3.0932710339 3.0932710339 3.0932710339 
3.0932710339 3.0932710339 3.0932710339 3.0932710339 3.0932710339 3.0932710339 3.0932710339 3.0932710339 3.0932710339 
3.0932710339 3.0932710339 3.0932710339 3.0932710339 3.0932710339 3.0932710339 3.0932710339 3.0932710339 3.0932710339 
3.0932710339 3.0932710339 3.0932710339 3.0932710339 3.0932710339 3.0932710339 3.0932710339 3.0932710339 3.0932710339 
3.0932710339 3.0932710339 3.0932710339 3.0932710339 3.0932710339 3.0932710339 3.0932710339 3.0932710339 3.0932710339 
3.0932710339 3.0932710339 3.0932710339 3.0932710339 3.0932710339 3.0932710339 3.0932710339 3.0932710339 3.0932710339 
3.0932710339 3.0932710339 3.0932710339 3.0932710339 3.0932710339 3.0932710339 3.0932710339 3.0932710339 3.0932710339 
3.0932710339 3.0932710339 3.0932710339 3.0932710339 3.0932710339 3.0932710339 3.0932710339 3.0932710339 3.0932710339 
3.0932710339 3.0932710339 3.0932710339 3.0932710339 3.0932710339 3.0932710339 3.0932710339 3.1078652246 3.1078652246 
3.1078652246 3.0932710339 3.0932710339 3.1078652246 3.1078652246 3.1078652246 3.1078652246 3.1078652246 3.1078652246 
3.0932710339 3.0932710339 3.1078652246 3.1078652246 3.1078652246 3.1078652246 3.1078652246 3.1078652246 3.0932710339 
3.0932710339 3.1078652246 3.1078652246 3.0932710339 3.0932710339 3.1078652246 3.1078652246 3.1078652246 3.0932710339 
3.0932710339 3.1078652246 3.1078652246 3.1078652246 3.0932710339 3.0932710339 3.1078652246 3.1078652246 3.1078652246 
3.0932710339 3.0932710339 3.1078652246 3.1078652246 3.1078652246 3.0932710339 3.0932710339 3.1078652246 3.1078652246 
3.1078652246 3.0932710339 3.0932710339 3.1078652246 3.1078652246 3.0932710339 3.0932710339 3.0932710339 3.1078652246 
3.1078652246 3.0932710339 3.0932710339 3.1078652246 3.1078652246 3.1078652246 3.0932710339 3.0932710339 3.0932710339 
3.1078652246 3.1078652246 3.1078652246 3.0932710339 3.0932710339 3.1078652246 3.1078652246 3.0932710339 3.0932710339 
3.1078652246 3.1078652246 3.0932710339 3.0932710339 3.1078652246 3.1078652246 3.1078652246 3.1078652246 3.0932710339 
3.0932710339 3.1078652246 3.1078652246 3.0932710339 3.0932710339 3.1078652246 3.1078652246 3.1078652246 3.0932710339 
3.0932710339 3.1078652246 3.1078652246 3.1078652246 3.0932710339 3.0932710339 3.1078652246 3.1078652246 3.0932710339 
3.0932710339 3.0932710339 3.1078652246 3.1078652246 3.0932710339 3.0932710339 3.1078652246 3.1078652246 3.1078652246 
3.0932710339 3.0932710339 3.1078652246 3.1078652246 3.0932710339 3.0932710339 3.1078652246 3.1078652246 3.0932710339 
3.0932710339 3.1078652246 3.1078652246 3.0932710339 3.0932710339 3.1078652246 3.1078652246 3.1078652246 3.0932710339 
3.0932710339 3.1078652246 3.1078652246 3.0932710339 3.0932710339 3.1078652246 3.1224594153 3.1224594153 3.1224594153 
3.1078652246 3.1078652246 3.0932710339 3.0932710339 3.1078652246 3.1224594153 3.1224594153 3.1224594153 3.1078652246 
3.0932710339 3.0932710339 3.1078652246 3.1224594153 3.1224594153 3.1224594153 3.1224594153 3.1078652246 3.0932710339 
3.0932710339 3.0932710339 3.1078652246 3.1224594153 3.1224594153 3.1224594153 3.1224594153 3.1224594153 3.1078652246 
3.0932710339 3.0932710339 3.1078652246 3.1224594153 3.1224594153 3.1078652246 3.0932710339 3.0932710339 3.1078652246 
3.1224594153 3.1224594153 3.1224594153 3.1224594153 3.1078652246 3.1078652246 3.0932710339 3.0932710339 3.1078652246 
3.1224594153 3.1224594153 3.1078652246 3.0932710339 3.0932710339 3.1078652246 3.1078652246 3.1224594153 3.1224594153 
3.1224594153 3.1224594153 3.1078652246 3.0932710339 3.0932710339 3.1078652246 3.1224594153 3.1224594153 3.1078652246 
3.0932710339 3.0932710339 3.0932710339 3.1078652246 3.1224594153 3.1224594153 3.1224594153 3.1078652246 3.0932710339 
3.0932710339 3.1078652246 3.1224594153 3.1224594153 3.1224594153 3.1078652246 3.1078652246 3.0932710339 3.0786768432 
3.0786768432 3.0786768432 3.0786768432 3.0932710339 3.1078652246 3.1224594153 3.1224594153 3.1078652246 3.0932710339 
3.0786768432 3.0786768432 3.0786768432 3.0932710339 3.1078652246 3.1224594153 3.1224594153 3.1224594153 3.1078652246 
3.0932710339 3.0786768432 3.0786768432 3.0786768432 3.0786768432 3.0786768432 3.0786768432 3.0786768432 3.0786768432 
3.0786768432 3.0786768432 3.0786768432 3.0932710339 3.1078652246 3.1078652246 3.1224594153 3.1224594153 3.1224594153 
3.1078652246 3.0932710339 3.0786768432 3.0786768432 3.0786768432 3.0786768432 3.0786768432 3.0786768432 3.0786768432 
3.0932710339 3.1078652246 3.1224594153 3.1224594153 3.1078652246 3.0932710339 3.0786768432 3.0786768432 3.0786768432 
3.0786768432 3.0786768432 3.0786768432 3.0786768432 3.0932710339 3.1078652246 3.1224594153 3.1224594153 3.1224594153 
3.1078652246 3.1078652246 3.0932710339 3.0786768432 3.0786768432 3.0786768432 3.0786768432 3.0786768432 3.0786768432 
3.0786768432 3.0786768432 3.0932710339 3.0932710339 3.1078652246 3.1224594153 3.137053606 3.137053606 3.137053606 
3.137053606 3.1224594153 3.1078652246 3.0932710339 3.0786768432 3.0786768432 3.0786768432 3.0786768432 3.0786768432 
3.0932710339 3.1078652246 3.1224594153 3.137053606 3.137053606 3.137053606 3.137053606 3.1224594153 3.1078652246 
3.0932710339 3.0786768432 3.0786768432 3.0786768432 3.0786768432 3.0786768432 3.0932710339 3.1078652246 3.1224594153 
3.1224594153 3.137053606 3.137053606 3.137053606 3.1224594153 3.1078652246 3.0932710339 3.0786768432 3.0786768432 
3.0786768432 3.0786768432 3.0786768432 3.0932710339 3.1078652246 3.1224594153 3.137053606 3.137053606 3.137053606 
3.137053606 3.1224594153 3.1224594153 3.1078652246 3.0932710339 3.0786768432 3.0786768432 3.0786768432 3.0786768432 
3.0786768432 3.0786768432 3.0932710339 3.1078652246 3.1224594153 3.137053606 3.137053606 3.1224594153 3.1078652246 
3.1078652246 3.0932710339 3.0786768432 3.0786768432 3.0786768432 3.0786768432 3.0786768432 3.0786768432 3.0786768432 
3.0932710339 3.1078652246 3.1224594153 3.137053606 3.137053606 3.137053606 3.137053606 3.1224594153 3.1078652246 
3.0932710339 3.0786768432 3.0786768432 3.0786768432 3.0786768432 3.0786768432 3.0932710339 3.1078652246 3.1224594153 
3.137053606 3.137053606 3.1224594153 3.1078652246 3.0932710339 3.0786768432 3.0786768432 3.0786768432 3.0786768432 
3.0786768432 3.0786768432 3.0932710339 3.1078652246 3.1224594153 3.1224594153 3.137053606 3.137053606 3.1224594153 
3.1224594153 3.1078652246 3.0932710339 3.0786768432 3.0786768432 3.0786768432 3.0786768432 3.0786768432 3.0932710339 
3.1078652246 3.1224594153 3.137053606 3.137053606 3.137053606 3.137053606 3.1224594153 3.1078652246 3.0932710339 
3.0786768432 3.0786768432 3.0786768432 3.0786768432 3.0786768432 3.0932710339 3.1078652246 3.1224594153 3.137053606 
3.137053606 3.1224594153 3.1078652246 3.0932710339 3.0786768432 3.0786768432 3.0786768432 3.0786768432 3.0786768432 
3.0786768432 3.0932710339 3.1078652246 3.1224594153 3.137053606 3.137053606 3.1224594153 3.1078652246 3.0932710339 
3.0932710339 3.0786768432 3.0786768432 3.0786768432 3.0786768432 3.0932710339 3.1078652246 3.1078652246 3.1224594153 
3.137053606 3.137053606 3.1516477967 3.1516477967 3.1516477967 3.1516477967 3.137053606 3.1224594153 3.1224594153 
3.1078652246 3.0932710339 3.0932710339 3.0786768432 3.0786768432 3.0786768432 3.0786768432 3.0786768432 3.0786768432 
3.0932710339 3.1078652246 3.1224594153 3.137053606 3.1516477967 3.1516477967 3.1516477967 3.1516477967 3.137053606 
3.137053606 3.1224594153 3.1078652246 3.1078652246 3.0932710339 3.0786768432 3.0786768432 3.0786768432 3.0786768432 
3.0786768432 3.0932710339 3.1078652246 3.1224594153 3.1224594153 3.137053606 3.1516477967 3.1516477967 3.1516477967 
3.137053606 3.1224594153 3.1078652246 3.0932710339 3.0786768432 3.0786768432 3.0786768432 3.0786768432 3.0932710339 
3.1078652246 3.1224594153 3.137053606 3.137053606 3.1516477967 3.1516477967 3.1516477967 3.1516477967 3.137053606 
3.1224594153 3.1078652246 3.0932710339 3.0786768432 3.0786768432 3.0786768432 3.0786768432 3.0932710339 3.1078652246 
3.1224594153 3.137053606 3.1516477967 3.1516477967 3.137053606 3.1224594153 3.1078652246 3.0932710339 3.0786768432 
3.0786768432 3.0786768432 3.0786768432 3.0932710339 3.1078652246 3.1224594153 3.137053606 3.1516477967 3.1516477967 
3.1516477967 3.1516477967 3.137053606 3.1224594153 3.1078652246 3.0932710339 3.0786768432 3.0786768432 3.0786768432 
3.0640826525 3.0640826525 3.0640826525 3.0640826525 3.0640826525 3.0786768432 3.0786768432 3.0932710339 3.1078652246 
3.1224594153 3.137053606 3.1516477967 3.1516477967 3.137053606 3.137053606 3.1224594153 3.1078652246 3.0932710339 
3.0786768432 3.0786768432 3.0786768432 3.0786768432 3.0786768432 3.0640826525 3.0640826525 3.0640826525 3.0640826525 
3.0640826525 3.0640826525 3.0786768432 3.0932710339 3.1078652246 3.1224594153 3.1224594153 3.137053606 3.137053606 
3.1516477967 3.1516477967 3.137053606 3.1224594153 3.1078652246 3.0932710339 3.0786768432 3.0786768432 3.0786768432 
3.0640826525 3.0640826525 3.0786768432 3.0932710339 3.1078652246 3.1224594153 3.137053606 3.1516477967 3.1516477967 
3.1516477967 3.137053606 3.1224594153 3.1078652246 3.0932710339 3.0786768432 3.0786768432 3.0786768432 3.0786768432 
3.0640826525 3.0640826525 3.0640826525 3.0786768432 3.0932710339 3.1078652246 3.1224594153 3.137053606 3.1516477967 
3.1516477967 3.137053606 3.1224594153 3.1078652246 3.0932710339 3.0786768432 3.0786768432 3.0786768432 3.0640826525 
3.0640826525 3.0640826525 3.0786768432 3.0932710339 3.1078652246 3.1224594153 3.137053606 3.137053606 3.1516477967 
3.1516477967 3.1662419875 3.1662419875 3.1662419875 3.1662419875 3.1662419875 3.1662419875 3.1516477967 3.137053606 
3.1224594153 3.1078652246 3.0932710339 3.0786768432 3.0786768432 3.0786768432 3.0786768432 3.0786768432 3.0640826525 
3.0640826525 3.0640826525 3.0786768432 3.0932710339 3.1078652246 3.1224594153 3.137053606 3.1516477967 3.1662419875 
3.1662419875 3.1662419875 3.1516477967 3.137053606 3.1224594153 3.1078652246 3.0932710339 3.0786768432 3.0786768432 
3.0786768432 3.0640826525 3.0640826525 3.0786768432 3.0932710339 3.1078652246 3.1078652246 3.1224594153 3.137053606 
3.1516477967 3.1516477967 3.1662419875 3.1662419875 3.1516477967 3.137053606 3.1224594153 3.1078652246 3.1078652246 
3.0932710339 3.0786768432 3.0786768432 3.0786768432 3.0640826525 3.0494884618 3.0494884618 3.0494884618 3.0640826525 
3.0786768432 3.0932710339 3.1078652246 3.1224594153 3.1224594153 3.137053606 3.1516477967 3.1662419875 3.1662419875 
3.1662419875 3.1516477967 3.137053606 3.1224594153 3.1078652246 3.0932710339 3.0786768432 3.0786768432 3.0786768432 
3.0786768432 3.0786768432 3.0786768432 3.0786768432 3.0786768432 3.0640826525 3.0640826525 3.0494884618 3.0494884618 
3.0494884618 3.0494884618 3.0494884618 3.0640826525 3.0640826525 3.0786768432 3.0786768432 3.0932710339 3.1078652246 
3.1224594153 3.137053606 3.137053606 3.1516477967 3.1662419875 3.1662419875 3.1662419875 3.1662419875 3.1516477967 
3.137053606 3.1224594153 3.1078652246 3.0932710339 3.0932710339 3.0786768432 3.0640826525 3.0640826525 3.0640826525 
3.0786768432 3.0786768432 3.0786768432 3.0786768432 3.0640826525 3.0494884618 3.0494884618 3.0494884618 3.0640826525 
3.0786768432 3.0932710339 3.1078652246 3.1224594153 3.137053606 3.1516477967 3.1662419875 3.1662419875 3.1516477967 
3.137053606 3.1224594153 3.1078652246 3.0932710339 3.0786768432 3.0786768432 3.0640826525 3.0640826525 3.0640826525 
3.0640826525 3.0786768432 3.0786768432 3.0786768432 3.0640826525 3.0494884618 3.0494884618 3.0494884618 3.0640826525 
3.0786768432 3.0932710339 3.1078652246 3.1224594153 3.137053606 3.1516477967 3.1516477967 3.1662419875 3.1662419875 
3.1516477967 3.137053606 3.137053606 3.1224594153 3.1078652246 3.0932710339 3.0786768432 3.0640826525 3.0640826525 
3.0640826525 3.0786768432 3.0786768432 3.0640826525 3.0494884618 3.0348942711 3.0348942711 3.0348942711 3.0494884618 
3.0640826525 3.0786768432 3.0932710339 3.1078652246 3.1224594153 3.1224594153 3.137053606 3.1516477967 3.1662419875 
3.1662419875 2.9619233175 2.9619233175 2.9765175082 2.9765175082 2.991111699 2.991111699 3.0057058897 3.0057058897 
3.0203000804 3.0203000804 3.0348942711 3.0348942711 3.0494884618 3.0494884618 3.0640826525 3.0640826525 3.0786768432 
3.0786768432 3.0932710339 3.0932710339 3.1078652246 3.1078652246 3.1224594153 3.1224594153 3.137053606 3.137053606 
3.1516477967 3.1516477967 3.1662419875 3.1662419875 2.9619233175 2.9765175082 2.991111699 3.0057058897 3.0203000804 
3.0348942711 3.0494884618 3.0640826525 3.0786768432 3.0932710339 3.1078652246 3.1224594153 3.137053606 3.1516477967 
3.1662419875 2.9619233175 2.9765175082 2.991111699 3.0057058897 3.0203000804 3.0348942711 3.0494884618 3.0640826525 
3.0786768432 3.0932710339 3.1078652246 3.1224594153 3.137053606 3.1516477967 3.1662419875 3.1662419875 3.1516477967 
3.137053606 3.1224594153 3.1078652246 3.0932710339 3.0786768432 3.0640826525 3.0640826525 3.0640826525 3.0640826525 
3.0786768432 3.0786768432 3.0786768432 3.0640826525 3.0494884618 3.0348942711 3.0348942711 3.0348942711 3.0348942711 
3.0494884618 3.0494884618 3.0640826525 3.0786768432 3.0786768432 3.0932710339 3.1078652246 3.1224594153 3.137053606 
3.137053606 2.9619233175 2.9619233175 2.9765175082 2.9765175082 2.991111699 2.991111699 3.0057058897 3.0057058897 
3.0203000804 3.0203000804 3.0348942711 3.0348942711 3.0494884618 3.0494884618 3.0640826525 3.0640826525 3.0786768432 
3.0786768432 3.0932710339 3.0932710339 3.1078652246 3.1078652246 3.1224594153 3.1224594153 3.137053606 3.137053606 
3.1516477967 2.9619233175 2.9765175082 2.991111699 3.0057058897 3.0203000804 3.0348942711 3.0494884618 3.0640826525 
3.0786768432 3.0932710339 3.1078652246 3.1224594153 3.137053606 3.1516477967 2.9619233175 2.9765175082 2.991111699 
3.0057058897 3.0203000804 3.0348942711 3.0494884618 3.0640826525 3.0786768432 3.0932710339 3.1078652246 3.1224594153 
3.137053606 3.1516477967 3.1662419875 2.9619233175 2.9765175082 2.991111699 3.0057058897 3.0203000804 3.0348942711 
3.0494884618 3.0640826525 3.0786768432 3.0932710339 3.1078652246 3.1224594153 3.137053606 3.1516477967 3.1662419875 
2.9619233175 2.9765175082 2.991111699 3.0057058897 3.0203000804 3.0348942711 3.0494884618 3.0640826525 3.0786768432 
3.0932710339 3.1078652246 3.1224594153 3.137053606 3.1516477967 3.1662419875 2.9619233175 2.9765175082 2.991111699 
3.0057058897 3.0203000804 3.0348942711 3.0494884618 3.0640826525 3.0786768432 3.0932710339 3.1078652246 3.1224594153 
3.137053606 3.1516477967 3.1662419875 2.9619233175 2.9765175082 2.991111699 3.0057058897 3.0203000804 3.0348942711 
3.0494884618 3.0640826525 3.0786768432 3.0932710339 3.1078652246 3.1224594153 3.137053606 3.1516477967 3.1662419875 
2.9619233175 2.9765175082 2.991111699 3.0057058897 3.0203000804 3.0348942711 3.0494884618 3.0640826525 3.0786768432 
3.0932710339 3.1078652246 3.1224594153 3.137053606 3.1516477967 3.1662419875 2.9619233175 2.9765175082 2.991111699 
3.0057058897 3.0203000804 3.0348942711 3.0494884618 3.0640826525 3.0786768432 3.0932710339 3.1078652246 3.1224594153 
3.137053606 3.1516477967 3.1662419875 2.9619233175 2.9765175082 2.991111699 3.0057058897 3.0203000804 3.0348942711 
3.0494884618 3.0640826525 3.0786768432 3.0932710339 3.1078652246 3.1224594153 3.137053606 3.1516477967 2.9619233175 
2.9765175082 2.991111699 3.0057058897 3.0203000804 3.0348942711 3.0494884618 3.0640826525 3.0786768432 3.0932710339 
3.1078652246 3.1224594153 3.137053606 3.1516477967 2.9619233175 2.9765175082 2.991111699 3.0057058897 3.0203000804 
3.0348942711 3.0494884618 3.0640826525 3.0786768432 3.0932710339 3.1078652246 3.1224594153 3.137053606 2.9619233175 
2.9765175082 2.991111699 3.0057058897 3.0203000804 3.0348942711 3.0494884618 3.0640826525 3.0786768432 3.0932710339 