# vtk DataFile Version 4.2
vtk output
ASCII
DATASET POLYDATA
POINTS 7033 float
1543.69 -3400.16 0 1553.84 -3408.15 0 1569.38 -3400.16 0 
1526.77 -3383.16 0 1590.84 -3389.12 0 1602.43 -3383.16 0 
1514.4 -3366.16 0 1516.84 -3370.15 0 1627.85 -3370.08 0 
1635.47 -3366.15 0 1503.98 -3349.16 0 1664.85 -3351.04 0 
1668.52 -3349.15 0 1493.56 -3332.16 0 1701.56 -3332.15 0 
1483.14 -3315.16 0 1701.85 -3332 0 1734.61 -3315.15 0 
1472.72 -3298.15 0 1479.85 -3309.78 0 1738.85 -3312.96 0 
1767.65 -3298.15 0 1462.3 -3281.15 0 1775.85 -3293.93 0 
1800.69 -3281.14 0 1451.88 -3264.15 0 1812.86 -3274.89 0 
1833.74 -3264.14 0 1441.46 -3247.15 0 1442.85 -3249.41 0 
1849.86 -3255.85 0 1866.78 -3247.14 0 1431.04 -3230.15 0 
1886.86 -3236.81 0 1899.83 -3230.14 0 1420.63 -3213.15 0 
1923.86 -3217.77 0 1932.87 -3213.14 0 1410.21 -3196.15 0 
1960.86 -3198.73 0 1965.92 -3196.13 0 1399.79 -3179.15 0 
1405.85 -3189.04 0 1997.87 -3179.7 0 1998.96 -3179.13 0 
1389.37 -3162.15 0 2032.01 -3162.13 0 1378.95 -3145.15 0 
2034.87 -3160.66 0 2065.05 -3145.13 0 1368.53 -3128.15 0 
1368.85 -3128.67 0 2071.87 -3141.62 0 2098.09 -3128.13 0 
1358.11 -3111.15 0 2108.87 -3122.58 0 2131.14 -3111.13 0 
1347.69 -3094.15 0 2145.88 -3104.98 0 2182.88 -3097 0 
2206.39 -3094.12 0 1337.27 -3077.14 0 2219.88 -3092.47 0 
2256.88 -3087.94 0 2293.88 -3083.41 0 2328.98 -3077.12 0 
1326.85 -3060.14 0 1331.86 -3068.31 0 2330.88 -3076.11 0 
2334.39 -3060.12 0 1316.43 -3043.14 0 2338.13 -3043.12 0 
1306.02 -3026.14 0 2341.86 -3026.11 0 1295.6 -3009.14 0 
2345.59 -3009.11 0 1285.18 -2992.14 0 1294.86 -3007.94 0 
2349.33 -2992.11 0 1274.76 -2975.14 0 2353.06 -2975.11 0 
1264.34 -2958.14 0 2356.79 -2958.11 0 1253.92 -2941.14 0 
1257.86 -2947.57 0 2360.52 -2941.11 0 1243.5 -2924.14 0 
2364.26 -2924.11 0 1210.09 -2907.14 0 1220.86 -2912.52 0 
2367.89 -2907.55 0 2367.99 -2907.11 0 1163.95 -2890.14 0 
1183.86 -2897.48 0 2371.72 -2890.11 0 1117.8 -2873.14 0 
1146.86 -2883.84 0 2375.46 -2873.1 0 1071.65 -2856.14 0 
1072.86 -2856.58 0 1109.86 -2870.21 0 2379.19 -2856.1 0 
1026.1 -2839.14 0 1035.86 -2842.95 0 2382.92 -2839.1 0 
992.243 -2822.14 0 998.861 -2826.65 0 2386.65 -2822.1 0 
967.312 -2805.14 0 2390.39 -2805.1 0 954.836 -2788.14 0 
961.861 -2801.42 0 2394.12 -2788.1 0 946.071 -2771.14 0 
2397.85 -2771.1 0 937.55 -2754.14 0 2401.59 -2754.1 0 
929.263 -2737.14 0 2404.9 -2738.98 0 2405.32 -2737.1 0 
921.869 -2720.14 0 924.865 -2727.92 0 2409.05 -2720.09 0 
915.326 -2703.13 0 2412.78 -2703.09 0 908.783 -2686.13 0 
2416.52 -2686.09 0 902.241 -2669.13 0 2420.25 -2669.09 0 
895.698 -2652.13 0 2423.98 -2652.09 0 889.155 -2635.13 0 
2427.72 -2635.09 0 882.612 -2618.13 0 887.869 -2631.79 0 
2431.45 -2618.09 0 876.069 -2601.13 0 2435.18 -2601.09 0 
869.526 -2584.13 0 2438.91 -2584.09 0 862.984 -2567.13 0 
2441.91 -2570.42 0 2442.65 -2567.08 0 856.441 -2550.13 0 
2446.38 -2550.08 0 849.898 -2533.13 0 850.874 -2535.66 0 
2450.11 -2533.08 0 843.355 -2516.13 0 2453.85 -2516.08 0 
836.812 -2499.12 0 2457.58 -2499.08 0 830.27 -2482.12 0 
2461.31 -2482.08 0 823.727 -2465.12 0 2465.04 -2465.08 0 
817.184 -2448.12 0 2468.78 -2448.08 0 810.641 -2431.12 0 
813.879 -2439.53 0 2472.51 -2431.08 0 804.098 -2414.12 0 
2476.24 -2414.07 0 797.555 -2397.12 0 2478.93 -2401.85 0 
2479.98 -2397.07 0 791.013 -2380.12 0 2483.71 -2380.07 0 
784.47 -2363.12 0 2487.44 -2363.07 0 777.927 -2346.12 0 
2491.17 -2346.07 0 771.384 -2329.12 0 776.883 -2343.4 0 
2494.91 -2329.07 0 764.841 -2312.12 0 2498.64 -2312.07 0 
758.298 -2295.11 0 2502.37 -2295.07 0 751.756 -2278.11 0 
2506.11 -2278.07 0 745.213 -2261.11 0 2509.84 -2261.07 0 
738.67 -2244.11 0 739.888 -2247.28 0 2513.57 -2244.06 0 
732.127 -2227.11 0 2515.94 -2233.29 0 2517.3 -2227.06 0 
725.584 -2210.11 0 2521.04 -2210.06 0 719.042 -2193.11 0 
2532.87 -2193.06 0 712.66 -2176.11 0 2545.3 -2176.06 0 
709.372 -2159.11 0 2552.94 -2165.62 0 2556.83 -2159.06 0 
707.01 -2142.11 0 2563.56 -2142.06 0 704.656 -2125.11 0 
2567.68 -2125.06 0 702.302 -2108.1 0 702.895 -2112.38 0 
2567.14 -2108.05 0 699.949 -2091.1 0 2566.16 -2091.05 0 
697.595 -2074.1 0 2565.19 -2074.05 0 695.241 -2057.1 0 
2564.21 -2057.05 0 692.887 -2040.1 0 2563.24 -2040.05 0 
690.534 -2023.1 0 2562.26 -2023.05 0 688.18 -2006.1 0 
2561.29 -2006.05 0 685.826 -1989.1 0 2560.31 -1989.05 0 
683.472 -1972.1 0 2559.34 -1972.05 0 681.119 -1955.1 0 
2558.36 -1955.05 0 678.765 -1938.1 0 2557.39 -1938.04 0 
676.411 -1921.09 0 2556.41 -1921.04 0 674.057 -1904.09 0 
2555.44 -1904.04 0 671.703 -1887.09 0 2554.46 -1887.04 0 
669.35 -1870.09 0 2553.49 -1870.04 0 666.996 -1853.09 0 
2552.96 -1860.81 0 2552.51 -1853.04 0 664.737 -1836.09 0 
665.909 -1845.24 0 2551.54 -1836.04 0 662.649 -1819.09 0 
2550.56 -1819.04 0 660.67 -1802.09 0 2549.59 -1802.04 0 
658.79 -1785.09 0 2548.61 -1785.04 0 656.988 -1768.09 0 
2547.64 -1768.04 0 655.936 -1751.09 0 2546.66 -1751.03 0 
654.885 -1734.08 0 2545.69 -1734.03 0 653.834 -1717.08 0 
2544.71 -1717.03 0 652.762 -1700.08 0 2543.74 -1700.03 0 
651.247 -1683.08 0 2542.77 -1683.03 0 649.713 -1666.08 0 
2541.79 -1666.03 0 648.18 -1649.08 0 2540.82 -1649.03 0 
645.671 -1632.08 0 2539.84 -1632.03 0 642.474 -1615.08 0 
2538.87 -1615.03 0 639.933 -1598.08 0 2537.89 -1598.03 0 
637.864 -1581.08 0 2536.92 -1581.02 0 -481.106 -1581 0 
-515.594 -1564.11 0 -444.105 -1579.33 0 -407.103 -1567.65 0 
-395.883 -1564.1 0 636.148 -1564.07 0 1411.03 -1564.05 0 
1442.95 -1564.93 0 1479.95 -1565.95 0 1516.95 -1566.96 0 
1553.95 -1567.98 0 1590.95 -1568.99 0 1603.62 -1564.05 0 
2536.56 -1564.02 0 -518.106 -1562.88 0 -550.296 -1547.11 0 
-370.102 -1555.96 0 -342.047 -1547.1 0 634.701 -1547.07 0 
1285.61 -1547.06 0 1294.94 -1551.73 0 1331.94 -1561.88 0 
1368.95 -1562.9 0 1405.95 -1563.91 0 1627.95 -1549.85 0 
1630.86 -1547.05 0 2537.46 -1547.02 0 -555.106 -1544.75 0 
-584.999 -1530.11 0 -333.1 -1544.27 0 -296.098 -1532.59 0 
-288.211 -1530.1 0 631.234 -1530.07 0 1254.18 -1530.06 0 
1257.94 -1534.14 0 1648.45 -1530.05 0 2538.49 -1530.02 0 
-592.106 -1526.62 0 -619.701 -1513.11 0 -259.096 -1520.9 0 
-234.375 -1513.1 0 626.914 -1513.07 0 628.928 -1519.61 0 
1238.13 -1513.06 0 1664.96 -1514.08 0 1666.16 -1513.04 0 
2539.53 -1513.02 0 -629.106 -1508.5 0 -654.404 -1496.11 0 
-222.095 -1509.22 0 -185.093 -1497.53 0 -180.539 -1496.09 0 
622.388 -1496.07 0 1219.55 -1496.06 0 1220.94 -1497.49 0 
1685.51 -1496.04 0 2540.56 -1496.02 0 -666.106 -1490.37 0 
-689.107 -1479.11 0 -148.091 -1485.85 0 -126.703 -1479.09 0 
618.669 -1479.07 0 1202.97 -1479.05 0 1701.96 -1481.2 0 
1704.54 -1479.04 0 2541.59 -1479.02 0 -703.106 -1472.25 0 
-719.251 -1462.11 0 -111.09 -1474.16 0 -74.0884 -1468.47 0 
-65.4237 -1462.09 0 615.56 -1462.07 0 1186.39 -1462.05 0 
1724.86 -1462.04 0 2542.63 -1462.02 0 -736.778 -1445.1 0 
-40.7707 -1445.09 0 612.496 -1445.07 0 1169.81 -1445.05 0 
1183.95 -1459.55 0 1738.96 -1450.24 0 1745.18 -1445.04 0 
2543.66 -1445.02 0 -740.105 -1440.73 0 -749.013 -1428.1 0 
-37.0858 -1442.02 0 -27.2099 -1428.08 0 608.748 -1428.07 0 
1153.23 -1428.05 0 1765.5 -1428.04 0 2544.7 -1428.02 0 
-761.009 -1411.1 0 -15.1605 -1411.08 0 605 -1411.07 0 
1136.65 -1411.05 0 1146.95 -1421.62 0 1775.96 -1419.28 0 
1782.79 -1411.03 0 2545.73 -1411.01 0 -773.005 -1394.1 0 
-3.2381 -1394.08 0 601.253 -1394.07 0 1120.06 -1394.05 0 
1794.18 -1394.03 0 2546.77 -1394.01 0 -777.103 -1388.3 0 
-785.002 -1377.1 0 -0.0817486 -1389.81 0 8.93833 -1377.08 0 
597.505 -1377.06 0 1102.31 -1377.05 0 1109.95 -1383.68 0 
1802.98 -1377.03 0 2547.8 -1377.01 0 -796.998 -1360.1 0 
20.9878 -1360.08 0 593.757 -1360.06 0 1079.67 -1360.05 0 
1809.74 -1360.03 0 2544.61 -1360.01 0 -808.994 -1343.1 0 
33.0372 -1343.08 0 590.009 -1343.06 0 591.936 -1351.81 0 
1055.57 -1343.05 0 1072.95 -1355.31 0 1812.97 -1351.54 0 
1816.21 -1343.03 0 2541.94 -1343.01 0 -814.101 -1335.86 0 
-820.99 -1326.1 0 36.9223 -1337.6 0 45.0866 -1326.08 0 
586.262 -1326.06 0 1031.47 -1326.05 0 1035.95 -1329.21 0 
1822.68 -1326.03 0 2539.46 -1326.01 0 -832.987 -1309.1 0 
57.136 -1309.08 0 580.906 -1309.06 0 1007.37 -1309.05 0 
1829.15 -1309.03 0 2536.08 -1309.01 0 -844.983 -1292.1 0 
69.1855 -1292.07 0 571.534 -1292.06 0 989.749 -1292.05 0 
998.95 -1303.11 0 1835.62 -1292.03 0 2532.7 -1292.01 0 
-851.099 -1283.43 0 -856.979 -1275.1 0 73.9264 -1285.38 0 
81.2349 -1275.07 0 565.035 -1275.06 0 975.549 -1275.05 0 
1842.09 -1275.03 0 2529.32 -1275.01 0 -868.975 -1258.1 0 
93.2843 -1258.07 0 559.895 -1258.06 0 961.413 -1258.05 0 
961.952 -1258.85 0 1848.57 -1258.02 0 2525.94 -1258.01 0 
-880.972 -1241.1 0 105.334 -1241.07 0 555.645 -1241.06 0 
949.964 -1241.05 0 1849.98 -1255.75 0 1859.04 -1241.02 0 
2522.56 -1241 0 -888.096 -1231 0 -892.968 -1224.1 0 
110.93 -1233.17 0 117.383 -1224.07 0 551.719 -1224.06 0 
554.942 -1237.96 0 938.515 -1224.05 0 1869.62 -1224.02 0 
2519.18 -1224 0 -904.964 -1207.1 0 127.179 -1207.07 0 
547.786 -1207.06 0 927.065 -1207.05 0 1880.21 -1207.02 0 
2516 -1208 0 2515.8 -1207 0 -916.961 -1190.09 0 
133.05 -1190.07 0 543.862 -1190.06 0 915.931 -1190.05 0 
924.954 -1203.91 0 1886.98 -1196.15 0 1890.8 -1190.02 0 
2512.42 -1190 0 -925.094 -1178.57 0 -928.957 -1173.09 0 
137.166 -1173.07 0 539.944 -1173.05 0 905.666 -1173.04 0 
1901.39 -1173.02 0 2509.07 -1173 0 -940.953 -1156.09 0 
139.703 -1156.06 0 536.035 -1156.05 0 896.2 -1156.04 0 
1911.41 -1156.02 0 2506.44 -1156 0 -953.279 -1139.09 0 
141.459 -1139.06 0 532.133 -1139.05 0 887.378 -1139.04 0 
887.957 -1140.16 0 1919.25 -1139.02 0 2505.25 -1139 0 
-962.092 -1130.46 0 -969.709 -1122.09 0 143.215 -1122.06 0 
528.24 -1122.05 0 878.557 -1122.04 0 1923.99 -1127.41 0 
1925.86 -1122.01 0 2504.76 -1122 0 -989.124 -1105.09 0 
144.972 -1105.06 0 524.353 -1105.05 0 869.735 -1105.04 0 
1931.78 -1105.01 0 2504.27 -1105 0 -999.091 -1096.35 0 
-1006.37 -1088.09 0 146.728 -1088.06 0 520.475 -1088.05 0 
860.914 -1088.04 0 1937.69 -1088.01 0 2503.78 -1088 0 
-1015.99 -1071.09 0 147.941 -1076.32 0 148.487 -1071.06 0 
516.554 -1071.05 0 517.951 -1076.97 0 852.092 -1071.04 0 
1943.61 -1071.01 0 2503.29 -1071 0 -1019.64 -1054.09 0 
[...]
POINT_DATA 7033
SCALARS Pressure double
LOOKUP_TABLE default
3.0932710339 3.0932710339 3.0932710339 3.0932710339 3.0932710339 3.0932710339 3.0932710339 3.0932710339 3.0932710339 
3.0932710339 3.0932710339 3.0932710339 3.0932710339 3.0932710339 3.0932710339 3.0932710339 3.0932710339 3.0932710339 
3.0932710339 3.0932710339 3.0932710339 3.0932710339 3.0932710339 3.0932710339 3.0932710339 3.0932710339 3.0932710339 
3.0932710339 3.0932710339 3.0932710339 3.0932710339 3.0932710339 3.0932710339 3.0932710339 3.0932710339 3.0932710339 
3.0932710339 3.0932710339 3.0932710339 3.0932710339 3.0932710339 3.0932710339 3.0932710339 3.0932710339 3.0932710339 
3.0932710339 3.0932710339 3.0932710339 3.0932710339 3.0932710339 3.0932710339 3.0932710339 3.0932710339 3.0932710339 
3.0932710339 3.0932710339 3.0932710339 3.0932710339 3.0932710339 3.0932710339 3.0932710339 3.0932710339 3.0932710339 
3.0932710339 3.0932710339 3.0932710339 3.0932710339 3.0932710339 3.0932710339 3.0932710339 3.0932710339 3.0932710339 
3.0932710339 3.0932710339 3.0932710339 3.0932710339 3.0932710339 3.0932710339 3.0932710339 3.0932710339 3.0932710339 
3.0932710339 3.0932710339 3.0932710339 3.0932710339 3.0932710339 3.0932710339 3.0932710339 3.0932710339 3.0932710339 
3.0932710339 3.0932710339 3.0932710339 3.0932710339 3.0932710339 3.0932710339 3.0932710339 3.0932710339 3.0932710339 
3.0932710339 3.0932710339 3.0932710339 3.0932710339 3.0932710339 3.0932710339 3.0932710339 3.0932710339 3.0932710339 
3.0932710339 3.0932710339 3.0932710339 3.0932710339 3.0932710339 3.0932710339 3.0932710339 3.0932710339 3.0932710339 
3.0932710339 3.0932710339 3.0932710339 3.0932710339 3.0932710339 3.0932710339 3.0932710339 3.0932710339 3.0932710339 
3.0932710339 3.0932710339 3.0932710339 3.0932710339 3.0932710339 3.0932710339 3.0932710339 3.0932710339 3.0932710339 
3.0932710339 3.0932710339 3.0932710339 3.0932710339 3.0932710339 3.0932710339 3.0932710339 3.0932710339 3.0932710339 
3.0932710339 3.0932710339 3.0932710339 3.0932710339 3.0932710339 3.0932710339 3.0932710339 3.0932710339 3.0932710339 
3.0932710339 3.0932710339 3.0932710339 3.0932710339 3.0932710339 3.0932710339 3.0932710339 3.0932710339 3.0932710339 
3.0932710339 3.0932710339 3.0932710339 3.0932710339 3.0932710339 3.0932710339 3.0932710339 3.0932710339 3.0932710339 
3.0932710339 3.0932710339 3.0932710339 3.0932710339 3.0932710339 3.0932710339 3.0932710339 3.0932710339 3.0932710339 
3.0932710339 3.0932710339 3.0932710339 3.0932710339 3.0932710339 3.0932710339 3.0932710339 3.0932710339 3.0932710339 
3.0932710339 3.0932710339 3.0932710339 3.0932710339 3.0932710339 3.0932710339 3.0932710339 3.0932710339 3.0932710339 
3.0932710339 3.0932710339 3.0932710339 3.0932710339 3.0932710339 3.0932710339 3.0932710339 3.0932710339 3.0932710339 
3.0932710339 3.0932710339 3.0932710339 3.0932710339 3.0932710339 3.0932710339 3.0932710339 3.0932710339 3.0932710339 
3.0932710339 3.0932710339 3.0932710339 3.0932710339 3.0932710339 3.0932710339 3.0932710339 3.0932710339 3.0932710339 
3.0932710339 3.0932710339 3.0932710339 3.0932710339 3.0932710339 3.0932710339 3.0932710339 3.0932710339 3.0932710339 
3.0932710339 3.0932710339 3.0932710339 3.0932710339 3.0932710339 3.0932710339 3.0932710339 3.0932710339 3.0932710339 
3.0932710339 3.0932710339 3.0932710339 3.0932710339 3.0932710339 3.0932710339 3.0932710339 3.0932710339 3.0932710339 
3.0932710339 3.0932710339 3.0932710339 3.0932710339 3.0932710339 3.0932710339 3.0932710339 3.0932710339 3.0932710339 
3.0932710339 3.0932710339 3.0932710339 3.0932710339 3.0932710339 3.0932710339 3.0932710339 3.0932710339 3.0786768432 
3.0786768432 3.0786768432 3.0786768432 3.0786768432 3.0932710339 3.1078652246 3.1078652246 3.1078652246 3.1078652246 
3.1078652246 3.1078652246 3.1078652246 3.0932710339 3.0786768432 3.0786768432 3.0786768432 3.0786768432 3.0932710339 
3.1078652246 3.1078652246 3.1078652246 3.1078652246 3.1078652246 3.1078652246 3.1078652246 3.0932710339 3.0786768432 
3.0786768432 3.0786768432 3.0786768432 3.0786768432 3.0932710339 3.1078652246 3.1078652246 3.1078652246 3.0932710339 
3.0786768432 3.0786768432 3.0786768432 3.0786768432 3.0932710339 3.0932710339 3.1078652246 3.1078652246 3.1078652246 
3.0932710339 3.0786768432 3.0786768432 3.0786768432 3.0786768432 3.0786768432 3.0932710339 3.1078652246 3.1078652246 
3.1078652246 3.0932710339 3.0786768432 3.0786768432 3.0786768432 3.0786768432 3.0932710339 3.1078652246 3.1078652246 
3.1078652246 3.0932710339 3.0786768432 3.0786768432 3.0786768432 3.0786768432 3.0786768432 3.0932710339 3.1078652246 
3.1078652246 3.0932710339 3.0786768432 3.0786768432 3.0932710339 3.1078652246 3.1078652246 3.1078652246 3.1078652246 
3.0932710339 3.0786768432 3.0786768432 3.0786768432 3.0786768432 3.0932710339 3.1078652246 3.1078652246 3.0932710339 
3.0786768432 3.0786768432 3.0932710339 3.1078652246 3.1078652246 3.1078652246 3.1078652246 3.0932710339 3.0786768432 
3.0786768432 3.0932710339 3.1078652246 3.1078652246 3.0932710339 3.0786768432 3.0786768432 3.0786768432 3.0786768432 
3.0932710339 3.1078652246 3.1078652246 3.1078652246 3.0932710339 3.0786768432 3.0786768432 3.0932710339 3.1078652246 
3.1078652246 3.0932710339 3.0786768432 3.0786768432 3.0932710339 3.0932710339 3.1078652246 3.1078652246 3.1078652246 
3.1078652246 3.0932710339 3.0786768432 3.0786768432 3.0786768432 3.0786768432 3.0932710339 3.1078652246 3.1078652246 
3.1078652246 3.0932710339 3.0786768432 3.0786768432 3.0932710339 3.1078652246 3.1078652246 3.0932710339 3.0786768432 
3.0786768432 3.0932710339 3.1078652246 3.1078652246 3.1078652246 3.0932710339 3.0786768432 3.0786768432 3.0786768432 
3.0786768432 3.0932710339 3.1078652246 3.1078652246 3.0932710339 3.0786768432 3.0786768432 3.0932710339 3.1078652246 
3.1078652246 3.1078652246 3.0932710339 3.0786768432 3.0786768432 3.0932710339 3.1078652246 3.1078652246 3.1078652246 
3.0932710339 3.0786768432 3.0786768432 3.0786768432 3.0786768432 3.0932710339 3.0932710339 3.1078652246 3.1078652246 
3.0932710339 3.0786768432 3.0786768432 3.0932710339 3.1078652246 3.1078652246 3.0932710339 3.0932710339 3.0786768432 
3.0786768432 3.0932710339 3.1078652246 3.1078652246 3.1078652246 3.1078652246 3.0932710339 3.0786768432 3.0786768432 
3.0786768432 3.0932710339 3.1078652246 3.1078652246 3.0932710339 3.0786768432 3.0786768432 3.0932710339 3.1078652246 
3.1078652246 3.0932710339 3.0786768432 3.0786768432 3.0932710339 3.1078652246 3.1078652246 3.1078652246 3.0932710339 
3.0786768432 3.0786768432 3.0786768432 3.0932710339 3.1078652246 3.1078652246 3.1078652246 3.0932710339 3.0786768432 
3.0786768432 3.0932710339 3.1078652246 3.1078652246 3.0932710339 3.0786768432 3.0786768432 3.0786768432 3.0932710339 
3.1078652246 3.1078652246 3.0932710339 3.0786768432 3.0786768432 3.0786768432 3.0932710339 3.0932710339 3.1078652246 
3.1078652246 3.0932710339 3.0786768432 3.0786768432 3.0932710339 3.1078652246 3.1078652246 3.1078652246 3.0932710339 
3.0786768432 3.0786768432 3.0932710339 3.1078652246 3.1078652246 3.0932710339 3.0786768432 3.0786768432 3.0932710339 
3.1078652246 3.1078652246 3.1078652246 3.0932710339 3.0786768432 3.0786768432 3.0932710339 3.1078652246 3.1078652246 
3.1078652246 3.0932710339 3.0786768432 3.0786768432 3.0932710339 3.1078652246 3.1078652246 3.0932710339 3.0786768432 
3.0786768432 3.0786768432 3.0932710339 3.1078652246 3.1078652246 3.1078652246 3.0932710339 3.0786768432 3.0786768432 
3.0932710339 3.1078652246 3.1078652246 3.0932710339 3.0786768432 3.0786768432 3.0932710339 3.1078652246 3.1078652246 
3.0932710339 3.0786768432 3.0786768432 3.0786768432 3.0932710339 3.1078652246 3.1078652246 3.0932710339 3.0786768432 
3.0786768432 3.0932710339 3.0932710339 3.1078652246 3.1078652246 3.1224594153 3.1224594153 3.1224594153 3.1224594153 
3.1224594153 3.1224594153 3.1078652246 3.1078652246 3.0932710339 3.0786768432 3.0786768432 3.0932710339 3.1078652246 
3.1224594153 3.1224594153 3.1224594153 3.1224594153 3.1224594153 3.1224594153 3.1078652246 3.0932710339 3.0786768432 
3.0786768432 3.0932710339 3.1078652246 3.1224594153 3.1224594153 3.1224594153 3.1224594153 3.1224594153 3.1078652246 
3.0932710339 3.0786768432 3.0786768432 3.0932710339 3.1078652246 3.1224594153 3.1224594153 3.1224594153 3.1078652246 
3.0932710339 3.0786768432 3.0786768432 3.0932710339 3.1078652246 3.1078652246 3.1224594153 3.1224594153 3.1224594153 
3.1078652246 3.0932710339 3.0932710339 3.0786768432 3.0786768432 3.0932710339 3.1078652246 3.1224594153 3.1224594153 
3.1224594153 3.1078652246 3.0932710339 3.0786768432 3.0786768432 3.0932710339 3.1078652246 3.1224594153 3.1224594153 
3.1224594153 3.1078652246 3.0932710339 3.0786768432 3.0786768432 3.0932710339 3.0932710339 3.1078652246 3.1224594153 
3.1224594153 3.1224594153 3.1078652246 3.1078652246 3.0932710339 3.0786768432 3.0786768432 3.0786768432 3.0932710339 
3.1078652246 3.1078652246 3.1224594153 3.1224594153 3.1224594153 3.1078652246 3.0932710339 3.0786768432 3.0786768432 
3.0786768432 3.0786768432 3.0786768432 3.0786768432 3.0786768432 3.0932710339 3.1078652246 3.1224594153 3.1224594153 
3.1078652246 3.0932710339 3.0786768432 3.0786768432 3.0786768432 3.0786768432 3.0786768432 3.0640826525 3.0640826525 
3.0640826525 3.0640826525 3.0640826525 3.0640826525 3.0640826525 3.0640826525 3.0786768432 3.0932710339 3.1078652246 
3.1224594153 3.1224594153 3.1224594153 3.1224594153 3.1078652246 3.0932710339 3.0786768432 3.0786768432 3.0786768432 
3.0786768432 3.0786768432 3.0640826525 3.0640826525 3.0640826525 3.0640826525 3.0786768432 3.0932710339 3.1078652246 
3.1224594153 3.1224594153 3.1078652246 3.0932710339 3.0786768432 3.0786768432 3.0786768432 3.0786768432 3.0786768432 
3.0640826525 3.0640826525 3.0640826525 3.0786768432 3.0932710339 3.1078652246 3.1078652246 3.1224594153 3.1224594153 
3.1224594153 3.1078652246 3.0932710339 3.0786768432 3.0786768432 3.0786768432 3.0786768432 3.0786768432 3.0640826525 
3.0640826525 3.0640826525 3.0786768432 3.0932710339 3.1078652246 3.1224594153 3.1224594153 3.1224594153 3.1224594153 
3.1078652246 3.0932710339 3.0786768432 3.0786768432 3.0786768432 3.0786768432 3.0786768432 3.0640826525 3.0640826525 
3.0640826525 3.0786768432 3.0932710339 3.1078652246 3.1224594153 3.1224594153 3.1078652246 3.0932710339 3.0786768432 
3.0786768432 3.0786768432 3.0786768432 3.0786768432 3.0640826525 3.0640826525 3.0640826525 3.0786768432 3.0932710339 
3.1078652246 3.1224594153 3.1224594153 3.1078652246 3.1078652246 3.0932710339 3.0786768432 3.0786768432 3.0786768432 
3.0786768432 3.0640826525 3.0640826525 3.0786768432 3.0932710339 3.1078652246 3.1224594153 3.1224594153 3.1224594153 
3.1078652246 3.0932710339 3.0786768432 3.0786768432 3.0786768432 3.0786768432 3.0786768432 3.0640826525 3.0640826525 
3.0640826525 3.0640826525 3.0786768432 3.0932710339 3.1078652246 3.1078652246 3.1224594153 3.1224594153 3.1224594153 
3.1078652246 3.0932710339 3.0786768432 3.0786768432 3.0786768432 3.0786768432 3.0640826525 3.0640826525 3.0786768432 
3.0932710339 3.0932710339 3.1078652246 3.1224594153 3.1224594153 3.1078652246 3.0932710339 3.0786768432 3.0786768432 
3.0786768432 3.0640826525 3.0640826525 3.0640826525 3.0640826525 3.0786768432 3.0932710339 3.1078652246 3.1224594153 
3.1224594153 3.1224594153 3.1078652246 3.0932710339 3.0786768432 3.0786768432 3.0786768432 3.0640826525 3.0640826525 
3.0786768432 3.0932710339 3.1078652246 3.1224594153 3.1224594153 3.1078652246 3.0932710339 3.0786768432 3.0786768432 
3.0786768432 3.0786768432 3.0640826525 3.0640826525 3.0786768432 3.0932710339 3.1078652246 3.1078652246 3.1224594153 
3.1224594153 3.137053606 3.137053606 3.137053606 3.137053606 3.137053606 3.1224594153 3.1224594153 3.1078652246 
3.0932710339 3.0786768432 3.0786768432 3.0786768432 3.0640826525 3.0640826525 3.0786768432 3.0932710339 3.1078652246 
3.1224594153 3.137053606 3.137053606 3.137053606 3.1224594153 3.1078652246 3.0932710339 3.0786768432 3.0786768432 
3.0786768432 3.0640826525 3.0640826525 3.0786768432 3.0932710339 3.1078652246 3.1224594153 3.1224594153 3.137053606 
3.137053606 3.137053606 3.137053606 3.1224594153 3.1078652246 3.0932710339 3.0786768432 3.0786768432 3.0786768432 
3.0786768432 3.0786768432 3.0640826525 3.0640826525 3.0786768432 3.0932710339 3.1078652246 3.1078652246 3.1224594153 
3.137053606 3.137053606 3.137053606 3.137053606 3.1224594153 3.1078652246 3.0932710339 3.0786768432 3.0786768432 
3.0786768432 3.0640826525 3.0640826525 3.0640826525 3.0640826525 3.0786768432 3.0932710339 3.1078652246 3.1224594153 
3.137053606 3.137053606 3.1224594153 3.1078652246 3.1078652246 3.0932710339 3.0786768432 3.0786768432 3.0786768432 
3.0640826525 3.0640826525 3.0786768432 3.0932710339 3.0932710339 3.1078652246 3.1224594153 3.1224594153 3.137053606 
3.137053606 3.137053606 3.137053606 3.1224594153 3.1078652246 3.0932710339 3.0786768432 3.0786768432 3.0786768432 
3.0786768432 3.0640826525 3.0640826525 3.0786768432 3.0932710339 3.1078652246 3.1224594153 3.137053606 3.137053606 
3.137053606 3.1224594153 3.1078652246 3.0932710339 3.0786768432 3.0786768432 3.0786768432 3.0640826525 3.0494884618 
3.0494884618 3.0494884618 3.0494884618 3.0494884618 3.0640826525 3.0786768432 3.0932710339 3.1078652246 3.1224594153 
3.137053606 3.137053606 3.137053606 3.1224594153 3.1224594153 3.1078652246 3.0932710339 3.0786768432 3.0786768432 
3.0786768432 3.0786768432 3.0640826525 3.0494884618 3.0494884618 3.0494884618 3.0494884618 3.0640826525 3.0786768432 
3.0932710339 3.1078652246 3.1078652246 3.1224594153 3.1224594153 3.137053606 3.137053606 3.137053606 3.1224594153 
3.1078652246 3.0932710339 3.0786768432 3.0786768432 3.0786768432 3.0786768432 3.0640826525 3.0640826525 3.0494884618 
3.0494884618 3.0494884618 3.0640826525 3.0786768432 3.0932710339 3.1078652246 3.1224594153 3.137053606 3.137053606 
3.1224594153 3.1078652246 3.0932710339 3.0932710339 3.0786768432 3.0786768432 3.0786768432 3.0640826525 3.0494884618 
3.0494884618 3.0494884618 3.0640826525 3.0786768432 3.0932710339 3.0932710339 3.1078652246 3.1224594153 3.137053606 
3.137053606 3.137053606 3.137053606 3.1224594153 3.1078652246 3.0932710339 3.0786768432 3.0786768432 3.0786768432 
3.0786768432 3.0640826525 3.0494884618 3.0494884618 3.0494884618 3.0640826525 3.0786768432 3.0932710339 3.1078652246 
3.1078652246 3.1224594153 3.1224594153 3.137053606 3.137053606 3.1224594153 3.1078652246 3.0932710339 3.0786768432 
3.0786768432 3.0786768432 3.0786768432 3.0640826525 3.0494884618 3.0494884618 3.0494884618 3.0640826525 3.0786768432 
3.0932710339 3.1078652246 3.1224594153 3.137053606 3.137053606 3.137053606 3.1224594153 3.1078652246 3.0932710339 
3.0786768432 3.0786768432 3.0786768432 3.0640826525 3.0494884618 3.0494884618 3.0494884618 3.0640826525 3.0786768432 
3.0932710339 3.1078652246 3.1224594153 3.137053606 3.137053606 3.1224594153 3.1078652246 3.0932710339 3.0786768432 
3.0786768432 3.0786768432 3.0786768432 3.0640826525 3.0494884618 3.0494884618 3.0640826525 3.0786768432 3.0786768432 
3.0932710339 3.1078652246 3.1078652246 3.1224594153 3.137053606 3.137053606 3.137053606 3.1224594153 3.1078652246 
3.0932710339 3.0786768432 3.0786768432 3.0786768432 3.0640826525 3.0494884618 3.0494884618 3.0640826525 3.0786768432 
3.0932710339 3.1078652246 3.1224594153 3.1224594153 3.137053606 3.137053606 3.1224594153 3.1078652246 3.0932710339 
3.0786768432 3.0786768432 3.0786768432 3.0786768432 3.0786768432 3.0640826525 3.0494884618 3.0494884618 3.0494884618 
3.0640826525 3.0786768432 3.0932710339 3.0932710339 3.1078652246 3.1224594153 3.137053606 3.137053606 3.137053606 
3.1224594153 3.1078652246 3.1078652246 3.0932710339 3.0786768432 3.0786768432 3.0786768432 3.0786768432 3.0640826525 
3.0640826525 3.0494884618 3.0348942711 3.0348942711 3.0348942711 3.0348942711 3.0494884618 3.0640826525 3.0786768432 
3.0932710339 3.1078652246 3.1224594153 3.137053606 3.137053606 3.1224594153 3.1078652246 3.0932710339 3.0786768432 
3.0786768432 3.0786768432 3.0640826525 3.0494884618 3.0348942711 3.0348942711 3.0348942711 3.0348942711 3.0494884618 
3.0494884618 3.0640826525 3.0786768432 3.0932710339 3.1078652246 3.1224594153 3.137053606 3.137053606 3.137053606 
3.1224594153 3.1078652246 3.0932710339 3.0786768432 3.0640826525 3.0640826525 3.0640826525 3.0640826525 3.0640826525 
3.0640826525 3.0786768432 3.0786768432 3.0786768432 3.0640826525 3.0494884618 3.0348942711 3.0348942711 3.0348942711 
3.0348942711 3.0494884618 3.0640826525 3.0786768432 3.0932710339 3.1078652246 3.1078652246 3.1224594153 3.1224594153 
3.137053606 3.137053606 3.137053606 3.1224594153 3.1078652246 3.0932710339 3.0786768432 3.0640826525 3.0640826525 
3.0640826525 3.0786768432 3.0786768432 3.0786768432 3.0640826525 3.0494884618 3.0348942711 3.0348942711 3.0494884618 
3.0640826525 3.0786768432 3.0932710339 3.1078652246 3.1224594153 3.1224594153 3.137053606 3.137053606 3.1224594153 
3.1078652246 3.0932710339 3.0786768432 3.0786768432 3.0640826525 3.0640826525 3.0640826525 3.0786768432 3.0786768432 
3.0786768432 3.0786768432 3.0786768432 3.0640826525 3.0494884618 3.0348942711 3.0348942711 3.0494884618 3.0640826525 
3.0786768432 3.0932710339 3.1078652246 3.1224594153 3.137053606 3.137053606 3.1224594153 3.1224594153 3.1078652246 
3.0932710339 3.0932710339 3.0786768432 3.0640826525 3.0640826525 3.0640826525 3.0640826525 3.0786768432 3.0786768432 
3.0786768432 3.0786768432 3.0640826525 3.0494884618 3.0494884618 3.0348942711 3.0348942711 3.0203000804 3.0203000804 
3.0203000804 3.0203000804 3.0348942711 3.0348942711 3.0494884618 3.0640826525 3.0786768432 3.0786768432 3.0932710339 
3.1078652246 3.1224594153 3.137053606 3.137053606 2.9619233175 2.9619233175 2.9765175082 2.9765175082 2.991111699 
2.991111699 3.0057058897 3.0057058897 3.0203000804 3.0203000804 3.0348942711 3.0348942711 3.0494884618 3.0494884618 
3.0640826525 3.0640826525 3.0786768432 3.0786768432 3.0932710339 3.0932710339 3.1078652246 3.1078652246 3.1224594153 
3.1224594153 3.137053606 3.137053606 2.9619233175 2.9765175082 2.991111699 3.0057058897 3.0203000804 3.0348942711 
3.0494884618 3.0640826525 3.0786768432 3.0932710339 3.1078652246 3.1224594153 3.137053606 2.9619233175 2.9765175082 
2.991111699 3.0057058897 3.0203000804 3.0348942711 3.0494884618 3.0640826525 3.0786768432 3.0932710339 3.1078652246 
3.1224594153 3.137053606 2.9619233175 2.9765175082 2.991111699 3.0057058897 3.0203000804 3.0348942711 3.0494884618 
3.0640826525 3.0786768432 3.0932710339 3.1078652246 3.1224594153 3.137053606 2.9619233175 2.9765175082 2.991111699 
3.0057058897 3.0203000804 3.0348942711 3.0494884618 3.0640826525 3.0786768432 3.0932710339 3.1078652246 3.1224594153 
3.137053606 2.9619233175 2.9765175082 2.991111699 3.0057058897 3.0203000804 3.0348942711 3.0494884618 3.0640826525 
3.0786768432 3.0932710339 3.1078652246 3.1224594153 3.137053606 2.9619233175 2.9765175082 2.991111699 3.0057058897 
3.0203000804 3.0348942711 3.0494884618 3.0640826525 3.0786768432 3.0932710339 3.1078652246 3.1224594153 3.137053606 
2.9619233175 2.9765175082 2.991111699 3.0057058897 3.0203000804 3.0348942711 3.0494884618 3.0640826525 3.0786768432 
3.0932710339 3.1078652246 3.1224594153 3.137053606 2.9619233175 2.9765175082 2.991111699 3.0057058897 3.0203000804 
3.0348942711 3.0494884618 3.0640826525 3.0786768432 3.0932710339 3.1078652246 3.1224594153 3.137053606 2.9619233175 
2.9765175082 2.991111699 3.0057058897 3.0203000804 3.0348942711 3.0494884618 3.0640826525 3.0786768432 3.0932710339 
3.1078652246 3.1224594153 3.137053606 3.137053606 3.137053606 3.1224594153 3.1078652246 3.0932710339 3.0786768432 
3.0640826525 3.0640826525 3.0786768432 3.0786768432 3.0786768432 3.0786768432 3.0640826525 3.0494884618 3.0348942711 
3.0203000804 3.0203000804 3.0203000804 3.0348942711 3.0494884618 3.0640826525 3.0786768432 3.0932710339 3.1078652246 
2.9619233175 2.9619233175 2.9765175082 2.9765175082 2.991111699 2.991111699 3.0057058897 3.0057058897 3.0203000804 
3.0203000804 3.0348942711 3.0348942711 3.0494884618 3.0494884618 3.0640826525 3.0640826525 3.0786768432 3.0786768432 