# vtk DataFile Version 4.2
vtk output
ASCII
DATASET UNSTRUCTURED_GRID
POINTS 1740 double
2144.07 -94.44003 0 2911 0 0 16.54298 -37.82236 0 
5.09149 -21.30132 0 1.27433 -10.75385 0 0 0 0 
2.54575 15.14293 0 6.36291 23.76126 0 14.00014 34.89063 0 
30.50239 50.70793 0 33.39435 -52.93479 0 2050.91 -103.7862 0 
60.1465 -69.72165 0 88.83633 -83.2817 0 118.7656 -94.71113 0 
153.4168 -105.7022 0 199.5806 -117.771 0 261.4466 -130.7139 0 
345.846 -144.1892 0 460.3522 -157.0592 0 608.4185 -167.1903 0 
783.2313 -172.4016 0 941.0559 -172.4533 0 1063.409 -170.1096 0 
1164.153 -166.8746 0 1263.449 -162.682 0 1375.468 -156.8941 0 
1513.293 -148.414 0 1665.281 -137.5317 0 1791.864 -127.3721 0 
2195.451 -89.09491 0 2273.924 -80.67077 0 2383.731 -68.3513 0 
2517.64 -52.47337 0 2649.227 -35.9232 0 2740.773 -23.82991 0 
2804.387 -15.13419 0 2848.802 -8.916218 0 2881.944 -4.196067 0 
56.61447 67.79801 0 84.09687 81.25172 0 112.4783 92.48395 0 
142.1748 102.3504 0 174.8563 111.6168 0 213.124 120.8806 0 
260.3759 130.5151 0 324.6539 141.1779 0 418.1422 152.9178 0 
535.6656 162.9871 0 690.9154 170.4255 0 902.6513 172.7852 0 
1100.32 169.0517 0 1270.99 162.3262 0 1462.794 151.6837 0 
1631.287 140.0952 0 1747.993 131 0 1922.788 115.9027 0 
2069.56 101.951 0 2128.804 96.0021 0 2297.147 78.11721 0 
2414.379 64.80104 0 2554.023 47.99319 0 2673.693 32.73885 0 
2757.97 21.50315 0 2814.297 13.7575 0 2852.02 8.460961 0 
2882.272 4.148909 0 1791.052 127.4402 0 1366.894 157.3738 0 
1444.38 -152.8302 0 1547.039 146.1296 0 1589.287 -143.1614 0 
1878.731 119.8675 0 1997.072 108.9828 0 1185.654 166.0472 0 
1882.536 -119.5292 0 1971.323 -111.4145 0 1684.777 136.0292 0 
2099.317 -98.9855 0 2234.809 84.9091 0 2181.695 90.53914 0 
1728.573 -132.5703 0 1718.815 133.3509 0 1834.825 123.7132 0 
1960.305 112.4444 0 2033.69 105.4648 0 2099.184 98.99892 0 
2214.291 -74.652252893 396.8421 2955.512 15.848737399 396.8421 158.0786 -29.577289173 396.8421 
147.0109 -13.747610866 396.8421 143.3217 -3.6211367039 396.8421 142.09 6.7186617445 396.8421 
144.5505 21.303620852 396.8421 148.2398 29.618003669 396.8421 155.621 40.370433037 396.8421 
171.5701 55.684312128 396.8421 174.3652 -44.019820756 396.8421 2124.254 -83.790858587 396.8421 
200.2206 -60.015038156 396.8421 227.9488 -72.893472025 396.8421 256.8748 -83.714161846 396.8421 
290.3647 -94.084922424 396.8421 334.981 -105.42440201 396.8421 394.7733 -117.51247691 396.8421 
476.3434 -129.98172641 396.8421 587.0114 -141.69848767 396.8421 730.1145 -150.60255985 396.8421 
899.0676 -154.65602318 396.8421 1051.602 -153.88038721 396.8421 1169.853 -151.01817567 396.8421 
1267.221 -147.42974757 396.8421 1363.188 -142.95023717 396.8421 1471.452 -136.9087172 396.8421 
1604.657 -128.21588902 396.8421 1751.55 -117.22359427 396.8421 1873.891 -107.07201406 396.8421 
2263.949 -69.444608851 396.8421 2339.792 -61.262711145 396.8421 2445.918 -49.349603344 396.8421 
2575.338 -34.077880019 396.8421 2702.515 -18.247794943 396.8421 2790.992 -6.7317919788 396.8421 
2852.473 1.5244100964 396.8421 2895.4 7.4163038464 396.8421 2927.431 11.882664857 396.8421 
196.807 72.277988764 396.8421 223.3682 85.380704211 396.8421 250.7983 96.351327338 396.8421 
279.4994 106.01555021 396.8421 311.0855 115.11995215 396.8421 348.0705 124.25439512 396.8421 
393.7383 133.79800928 396.8421 455.8617 144.43020841 396.8421 546.2162 156.26849297 396.8421 
659.8003 166.63708412 396.8421 809.846 174.68363572 396.8421 1014.485 178.13291601 396.8421 
1205.528 175.58339365 396.8421 1370.477 169.949561 396.8421 1555.851 160.56102663 396.8421 
1718.696 150.06401096 396.8421 1831.49 141.70558115 396.8421 2000.426 127.66425407 396.8421 
2142.278 114.54160547 396.8421 2199.537 108.90981236 396.8421 2362.236 91.863172475 396.8421 
2475.539 79.070564363 396.8421 2610.501 62.815570001 396.8421 2726.16 47.969545023 396.8421 
2807.613 36.983264779 396.8421 2862.05 29.386137149 396.8421 2898.509 24.180750513 396.8421 
2927.749 19.936914204 396.8421 1873.106 138.41184912 396.8421 1463.165 165.62328292 396.8421 
1538.054 -132.72497499 396.8421 1637.272 155.55560411 396.8421 1678.104 -122.89201556 396.8421 
1957.846 131.36925385 396.8421 2072.22 121.17140386 396.8421 1288 173.11950869 396.8421 
1961.524 -99.291232258 396.8421 2047.334 -91.283569893 396.8421 1770.393 146.33832755 396.8421 
2171.038 -79.091426865 396.8421 2301.989 98.356007316 396.8421 2250.655 103.72056147 396.8421 
1812.721 -112.25479183 396.8421 1803.29 143.87423686 396.8421 1915.411 134.95149015 396.8421 
2036.686 124.42334301 396.8421 2107.61 117.85834373 396.8421 2170.909 111.74946679 396.8421 
2284.511 -58.431480766 793.6842 3000.027 28.410704162 793.6842 299.6143 -21.074993811 793.6842 
288.9304 -5.8884000678 793.6842 285.3691 3.8421115911 793.6842 284.1801 13.789149778 793.6842 
286.5551 27.839195444 793.6842 290.1167 35.859029857 793.6842 297.2417 46.242316819 793.6842 
312.6379 61.054937295 793.6842 315.336 -34.902650855 793.6842 2197.597 -67.303307208 793.6842 
340.2947 -50.18173201 793.6842 367.0612 -62.452772264 793.6842 394.9839 -72.738414781 793.6842 
427.3123 -82.571452172 793.6842 470.3812 -93.289110167 793.6842 528.0998 -104.66371158 793.6842 
606.8411 -116.31706096 793.6842 713.6708 -127.13579545 793.6842 851.8104 -135.13853643 793.6842 
1014.904 -138.41096196 793.6842 1162.147 -137.13784557 793.6842 1276.298 -134.00340023 793.6842 
1370.288 -130.2567446 793.6842 1462.927 -125.67472891 793.6842 1567.436 -119.57716975 793.6842 
1696.021 -110.89637487 793.6842 1837.82 -100.01550506 793.6842 1955.917 -90.032094989 793.6842 
2332.447 -53.386573303 793.6842 2405.659 -45.474800879 793.6842 2508.105 -33.984292033 793.6842 
2633.037 -19.300109851 793.6842 2755.801 -4.1274359604 793.6842 2841.209 6.8825107623 793.6842 
2900.561 14.762716236 793.6842 2941.997 20.379993605 793.6842 2972.917 24.634818634 793.6842 
336.9995 77.140956688 793.6842 362.6396 89.872162889 793.6842 389.1182 100.55442313 793.6842 
416.8239 109.98430962 793.6842 447.3145 118.88747197 793.6842 483.0167 127.84238457 793.6842 
527.1009 137.22787905 793.6842 587.0697 147.73033825 793.6842 674.2905 159.50985606 793.6842 
783.9349 169.96259248 793.6842 928.7766 178.31015965 793.6842 1126.317 182.40392157 793.6842 
1310.735 180.61205003 793.6842 1469.963 175.7058848 793.6842 1648.908 167.17962142 793.6842 
1806.105 157.45610954 793.6842 1914.987 149.63307176 793.6842 2078.064 136.38271218 793.6842 
2214.996 123.90666608 793.6842 2270.269 118.52999882 793.6842 2427.326 102.18652243 793.6842 
2536.699 89.862531967 793.6842 2666.98 74.141271067 793.6842 2778.628 59.730465536 793.6842 
2857.255 49.038114242 793.6842 2909.806 41.631618367 793.6842 2945.001 36.551313831 793.6842 
2973.224 32.406296643 793.6842 1955.16 146.5356937 793.6842 1559.437 171.80675983 793.6842 
1631.729 -115.3885593 793.6842 1727.505 162.56025864 793.6842 1766.921 -105.61566946 793.6842 
2036.96 139.89004986 793.6842 2147.368 130.21947304 793.6842 1390.347 178.5056106 793.6842 
2040.511 -82.412950791 793.6842 2123.346 -74.596711649 793.6842 1856.009 153.97621683 793.6842 
2242.759 -62.737955838 793.6842 2369.167 108.42292366 793.6842 2319.614 113.56524657 793.6842 
1896.869 -95.122413256 793.6842 1887.765 151.66823643 793.6842 1995.998 143.27411094 793.6842 
2113.066 133.30889989 793.6842 2181.531 127.0671817 793.6842 2242.634 121.24255349 793.6842 
2354.732 -45.052038253 1190.526 3044.539 38.262160491 1190.526 441.15 -12.690170327 1190.526 
430.8497 1.8893558105 1190.526 427.4164 11.242332883 1190.526 426.2701 20.812045408 1190.526 
428.5601 34.343368039 1190.526 431.9934 42.074856961 1190.526 438.8627 52.093618335 1190.526 
453.7057 66.404318582 1190.526 456.3069 -25.944507759 1190.526 2270.94 -53.613862524 1190.526 
480.3688 -40.564624693 1190.526 506.1737 -52.284500378 1190.526 533.0934 -62.090867653 1190.526 
564.26 -71.448536843 1190.526 605.7815 -81.625071106 1190.526 661.4265 -92.391530097 1190.526 
737.3385 -103.3696297 1190.526 840.33 -113.476603 1190.526 973.5064 -120.81275375 1190.526 
1130.74 -123.57204931 1190.526 1272.693 -122.03275605 1190.526 1382.742 -118.79754191 1190.526 
1473.356 -115.02792474 1190.526 1562.666 -110.47073419 1190.526 1663.42 -104.45276904 1190.526 
1787.385 -95.938589726 1190.526 1924.09 -85.321353524 1190.526 2037.944 -75.616741914 1190.526 
2400.946 -40.188919951 1190.526 2471.527 -32.569650913 1190.526 2570.292 -21.518472985 1190.526 
2690.735 -7.4178946757 1190.526 2809.091 7.1290868095 1190.526 2891.43 17.6724612 1190.526 
2948.647 25.212911037 1190.526 2988.597 30.585257589 1190.526 3018.403 34.653160515 1190.526 
477.1918 81.97130612 1190.526 501.9109 94.312896373 1190.526 527.4382 104.68434174 1190.526 
554.1485 113.85350717 1190.526 583.5435 122.52381901 1190.526 617.963 131.25969839 1190.526 
660.4633 140.43489303 1190.526 718.2775 150.73186625 1190.526 802.3645 162.33465307 1190.526 
908.0698 172.71280128 1190.526 1047.707 181.13891267 1190.526 1238.151 185.56045573 1190.526 
1415.942 184.22708816 1190.526 1569.449 179.79539294 1190.526 1741.965 171.86076456 1190.526 
1893.514 162.6912457 1190.526 1998.484 155.26464026 1190.526 2155.702 142.62150612 1190.526 
2287.714 130.6640704 1190.526 2341.001 125.49851549 1190.526 2492.415 109.75960665 1190.526 
2597.858 97.86071577 1190.526 2723.46 82.650704387 1190.526 2831.095 68.683231625 1190.526 
2906.899 58.306646416 1190.526 2957.56 51.113163981 1190.526 2991.49 46.176485423 1190.526 
3018.699 42.147261452 1190.526 2037.214 152.31557242 1190.526 1655.708 176.18584139 1190.526 
1725.403 -100.33837398 1190.526 1817.738 167.51518763 1190.526 1855.738 -90.779677945 1190.526 
2116.075 145.97458076 1190.526 2222.516 136.71987564 1190.526 1492.694 182.35052251 1190.526 
2119.498 -68.228466905 1190.526 2199.357 -60.66268975 1190.526 1941.625 159.39188473 1190.526 
2314.479 -49.206420199 1190.526 2436.346 115.77135919 1190.526 2388.573 120.72300659 1190.526 
1981.017 -80.561087715 1190.526 1972.24 157.19982971 1190.526 2076.584 149.20558954 1190.526 
[...]
POINT_DATA 1740
FIELD FieldData 1
Pressure 1 1740 double
3.1045748118 3.0187269889 3.0095158259 2.9858125831 2.9789651645 2.9590041155 2.9715821094 2.9888169667 3.0199006219 
3.0338977905 3.0114103071 3.1085729708 3.0340192535 3.0485812982 3.0658850917 3.0655209619 3.08268261 3.0877412571 
3.1091441152 3.1139376589 3.132845553 3.1413545248 3.1431916872 3.1494815247 3.1438868772 3.1400025313 3.1364459893 
3.1325842908 3.125562094 3.1195665712 3.1020587363 3.0986303644 3.0931363932 3.0850320413 3.0742116953 3.0641845001 
3.054338355 3.0456527677 3.0376529446 3.0697577569 3.0814278319 3.0938187453 3.1067096553 3.1127309733 3.1196107761 
3.1267703716 3.1345507974 3.1501919292 3.1627332149 3.1790405634 3.1896232035 3.1964886417 3.2023260518 3.2078589317 
3.2121706973 3.2155793429 3.2163573029 3.1258450921 3.0980409459 3.0879237405 3.0816335693 3.0726694035 3.0628311589 
3.0523611166 3.0418420936 3.0341766033 3.0328680458 3.2154271973 3.205749759 3.1350844834 3.2096205958 3.1289730047 
3.2160564817 3.2177329429 3.2035558723 3.1158612334 3.1121102132 3.2135979288 3.1064126828 3.0919225673 3.0945259333 
3.1222631074 3.2151690846 3.2154628178 3.216956975 3.2292005492 3.0987890001 3.1015616614 3.0235563166 3.0276423118 
3.0010970957 3.0077915909 2.9861978901 2.9932493665 3.0050330856 3.0335986448 3.052011353 3.035986444 3.1058643525 
3.0562745222 3.0688552913 3.0819457619 3.085968681 3.1013769542 3.1109193275 3.1242743609 3.1292838064 3.1400731452 
3.1441114964 3.1478442321 3.1484579085 3.143326792 3.1387591893 3.1329937879 3.1289052113 3.1223626146 3.1167265607 
3.0992889413 3.0952063293 3.0896380288 3.0815762064 3.070749785 3.0607603614 3.051042048 3.0434646694 3.0284837175 
3.0850747644 3.1060418408 3.1179303493 3.1266060148 3.1355205434 3.140401272 3.1458201087 3.1557264669 3.167710096 
3.1768519318 3.1857736506 3.1935204395 3.2001142964 3.206506413 3.2097867088 3.2126226518 3.2158569135 3.2181624015 
3.0925880115 3.0979599751 3.0910355731 3.0849394113 3.0764883113 3.0656440618 3.0553358748 3.0452013045 3.0385751879 
3.0391764358 3.2163550679 3.2079971535 3.1319305088 3.2125477204 3.125281376 3.2175140905 3.2152035965 3.2052470802 
3.1129191233 3.109212287 3.2143332714 3.1038666473 3.0942669114 3.0965416198 3.119601625 3.2150978241 3.2162221418 
3.2187499838 3.1532021429 3.0960877052 3.0994329871 3.023480921 3.0279939955 3.0003783145 3.0017838821 2.9841832567 
2.9960112219 3.0096963676 3.0387425109 3.0597903954 3.0445537849 3.103643064 3.059427343 3.0784666051 3.0964052467 
3.1027716928 3.1156143391 3.1239786105 3.1365437148 3.1426401787 3.1497329413 3.1521509148 3.1514280333 3.1495834395 
3.1428481215 3.1370139903 3.131294144 3.1257386892 3.1199552573 3.114801829 3.0971345919 3.0933038723 3.0875200061 
3.0796838903 3.0687462244 3.058638531 3.0495151397 3.0422642461 3.0291500283 3.0923619538 3.1140510239 3.1320578237 
3.1411631001 3.1523861221 3.1605498546 3.170353901 3.1745585837 3.1828830738 3.1928117292 3.1979734833 3.2034135249 
3.2062482627 3.2129605948 3.2154601103 3.2162259899 3.2182573796 3.2211028667 3.0950275497 3.0941307382 3.0909263323 
3.0856036559 3.0776223554 3.0667868867 3.0567614294 3.0469317069 3.0397155761 3.0410678128 3.2189392945 3.214556087 
3.1290817885 3.2163765844 3.1227170447 3.2196212196 3.1442095981 3.2104337698 3.1108791898 3.1070305305 3.2168268048 
3.1017800536 3.0935289788 3.0948328898 3.1173146515 3.2173570004 3.2192495088 3.2219811352 3.092169357 3.0944581321 
3.0978801129 3.0234658513 3.0285742606 3.0002124855 3.0024875041 2.9825288518 2.9920780952 3.0067966949 3.0393671729 
3.0608475154 3.0443467573 3.1020921428 3.0647975025 3.0823995469 3.1016462642 3.1103060314 3.1226161665 3.1306682821 
3.1431918021 3.1505195138 3.1564126359 3.1571208081 3.154860857 3.1505918051 3.142931013 3.1364946594 3.1304325127 
3.124475365 3.1183662641 3.1131272145 3.0956232718 3.0918241475 3.0862858815 3.0785326281 3.0678124578 3.0577621029 
3.0490477158 3.0418139666 3.0293156538 3.0961455273 3.1194652849 3.1345578985 3.146594362 3.1536452698 3.1648591791 
3.1770683133 3.1865921295 3.1944771621 3.2045589788 3.2097952629 3.2142948106 3.2152053055 3.2210201743 3.2233925911 
3.2232020474 3.2242971477 3.2289379891 3.0924429142 3.0934803494 3.0903711054 3.0849801308 3.0767314728 3.066353697 
3.0565314159 3.0469330512 3.0395292436 3.0410183271 3.2243931611 3.2221600726 3.1279765836 3.2235862067 3.1212846469 
3.224838893 3.0856149699 3.2185103509 3.1092979681 3.1053317169 3.2234215929 3.1001735386 3.0925381146 3.0933358702 
3.1156976224 3.2235212874 3.224646308 3.1151831062 3.0908902234 3.0931121841 3.0969016346 3.0229283578 3.0306354214 
3.0008788076 3.0068674354 2.9862281907 2.9940235308 3.0077340567 3.0415339376 3.0620189872 3.0458250527 3.1010404389 
3.0674322855 3.0849318861 3.1020173539 3.1117890882 3.1246638418 3.1350846856 3.1459587644 3.1538363183 3.1602913969 
3.1599515639 3.1562907942 3.1502818542 3.1421518528 3.1353848969 3.1290681717 3.1233019569 3.1172871006 3.1118347522 
3.0945944731 3.0907813983 3.0853482419 3.0776707547 3.0671911483 3.0573144851 3.0487781215 3.0414492076 3.0294424501 
3.0975766549 3.1212781099 3.1361150544 3.1489754123 3.1581052946 3.1692377185 3.1803286206 3.1861287013 3.1970891983 
3.2096543509 3.2183207872 3.2226107785 3.2239453325 3.2287350517 3.2306932043 3.2304399603 3.2310891597 3.1254426398 
3.0900697588 3.0900765771 3.0878773254 3.082573179 3.0744088986 3.0645716304 3.0550395571 3.0456872843 3.0383911322 
3.0402160321 3.231316876 3.2302569828 3.1268122865 3.2306906962 3.1201500272 3.2310490355 3.0889681472 3.2268446116 
3.108025593 3.1040807596 3.2304687576 3.0989686108 3.0898153964 3.0899825039 3.1145650622 3.2305542617 3.2315700003 
3.0877978292 3.090120023 3.0902090693 3.0960133802 3.0226195486 3.0317180691 3.0021796926 3.0087315127 2.9871100755 
2.9955036016 3.0091381939 3.0423204232 3.0638615804 3.0468638362 3.1000431084 3.0687021337 3.0869379211 3.1030457665 
3.1133317821 3.1262371534 3.1374747541 3.1488187361 3.1567876851 3.1637133264 3.1621263112 3.1570736374 3.1495052144 
3.141208079 3.1343081055 3.1280775033 3.1221068261 3.116204641 3.1107813214 3.0936923057 3.0899088242 3.0845718123 
3.0769629579 3.0665975046 3.0567838728 3.0483583352 3.0409647283 3.0294364817 3.0989572127 3.1230110125 3.1379980162 
3.1509173422 3.1599948366 3.171669294 3.1840603435 3.1911903819 3.20244254 3.2145118538 3.2249822837 3.2302338322 
3.2322383245 3.2376917424 3.2390233413 3.2378727542 3.2380108315 3.0818722464 3.0887938009 3.0882725355 3.0857714379 
3.0809099979 3.0732554902 3.0636156086 3.0542117917 3.0452617796 3.0379434044 3.0399838291 3.2382176009 3.2383005778 
3.1256386281 3.2384801971 3.1190430546 3.2441812747 3.0881943403 3.2350754707 3.1069532174 3.1031066833 3.2375569334 
3.0981400561 3.087630718 3.0879935897 3.1135304107 3.2377078991 3.2391047784 3.0864972536 3.0882583663 3.088559989 
3.0954118963 3.0228148174 3.032107531 3.002389328 3.0082524279 2.9866912734 2.9956293291 3.0093463669 3.0424675833 
3.0643158575 3.0474419245 3.0994557218 3.0693984162 3.0879198246 3.10392069 3.1145118654 3.1275408742 3.1392842339 
3.1506939969 3.1587586522 3.166188986 3.1637890015 3.1575198454 3.1488042045 3.1405755621 3.1336554114 3.1275305889 
3.1212942305 3.1155005582 3.1101092724 3.0931311632 3.0893563708 3.084060123 3.076500193 3.0661907274 3.0563553524 
3.0479855458 3.0405239653 3.0292896821 3.0994428528 3.1237503095 3.1391653483 3.1521930914 3.1616717832 3.1734064622 
3.1857068434 3.1936421142 3.2053573827 3.2184711246 3.2298447784 3.2366205596 3.2397384776 3.2458107487 3.2474637468 
3.2463335539 3.2457766385 3.085875237 3.0888152447 3.0879610597 3.0863423845 3.0816595171 3.0742254103 3.0644372597 
3.0550743965 3.0461471728 3.0387296448 3.0409420842 3.2456371329 3.2468833643 3.124915982 3.2471968151 3.1183017167 
3.2299976342 3.0864684397 3.2429175233 3.1062788586 3.1024619167 3.2457068781 3.0975088789 3.0880018228 3.0884585742 
3.1127910024 3.245454375 3.2469768876 3.0885929461 3.0878008684 3.0887902499 3.0950704136 3.0229460065 3.0323940683 
3.0026839176 3.0084241262 2.9869208776 2.9958151044 3.0094540984 3.0426565164 3.0646074464 3.0477706902 3.0991903911 
3.069862591 3.0883499852 3.1042584376 3.1151017914 3.128331041 3.1404754854 3.1519302264 3.1601276775 3.1679383106 
3.1649822843 3.1576745185 3.1482794111 3.1401908856 3.133304664 3.1272586974 3.1208022618 3.1151595814 3.1097399744 
3.0928013891 3.0890573012 3.083832488 3.0762888735 3.066010798 3.0560886759 3.0477585334 3.0401974691 3.0293148506 
3.0997500351 3.1242297288 3.1398635966 3.1530155774 3.1626418207 3.1744698265 3.1868575541 3.1954233397 3.2074514894 
3.2209439496 3.2329988689 3.2410882398 3.2456869842 3.2524826583 3.2548112189 3.2543299081 3.2537489711 3.0861474439 
3.0871010329 3.0867730229 3.0857117944 3.0812594008 3.0742301069 3.0647105087 3.0556436003 3.0467668184 3.0392282417 
3.0417179103 3.2535434744 3.2543873976 3.1244717173 3.2547087286 3.1179217341 3.1982026136 3.0853841742 3.2492890994 
3.1059424773 3.1021920769 3.2538748905 3.0971657848 3.0873291871 3.0873977673 3.1124170451 3.2534823313 3.2572374823 
3.0888613079 3.0861803185 3.0876888014 3.0949197253 3.0225947243 3.0327309969 3.0030579664 3.0088140697 2.9872053587 
2.9961297447 3.0097568895 3.0429671298 3.0650096866 3.048070583 3.0989419866 3.0701810432 3.0888876506 3.1048018856 
3.1158547287 3.1290624219 3.1414593374 3.15294034 3.1613946168 3.1693472904 3.1660104882 3.1578466434 3.148127941 
3.1401169196 3.1332174413 3.1272314939 3.1207280829 3.1150713237 3.1096418472 3.0926482297 3.0889291031 3.0837705449 
3.0761796912 3.0659507739 3.0559044745 3.0476072242 3.0399695738 3.0294452793 3.1001585246 3.1247296965 3.1405221869 
3.1537550988 3.1634806745 3.1753758522 3.1877482183 3.1967165696 3.2090544243 3.2228162611 3.235199723 3.2444845045 
3.2499518931 3.2576063285 3.2614038255 3.2609555922 3.26107788 3.0819718469 3.0863641049 3.0856549238 3.0836988675 
3.0794001432 3.0726942222 3.063446822 3.0546460103 3.0460623812 3.0383991716 3.0413707523 3.2613548102 3.2597327565 
3.1244414026 3.2612801145 3.1178706202 3.1829884209 3.0830926193 3.2539303293 3.1058669469 3.1021716388 3.2608488969 
3.0969401255 3.0851900897 3.0852757074 3.1122770067 3.2606347243 3.2644057492 3.0862413302 3.0844248107 3.0876086379 
3.0948572759 3.0221891285 3.0330599295 3.0033882898 3.0092631342 2.987480456 2.9964272606 3.0100511539 3.0432822306 
3.0654302497 3.0482763898 3.0988348637 3.0703843225 3.0891418886 3.1051213719 3.1163126093 3.1295713642 3.1421741471 
3.1537874108 3.1625647568 3.1705903856 3.1670411784 3.1582485421 3.1483509959 3.1402848145 3.1333994209 3.1273917751 
3.1209253961 3.1152029621 3.1096883686 3.0926466596 3.08892347 3.0838338859 3.0762067665 3.0660229171 3.0559187528 
3.0476362293 3.039945333 3.0296522846 3.1006144666 3.1252580261 3.1411740193 3.1544570407 3.1642736197 3.1761910557 
3.1885690653 3.1977881166 3.2103753493 3.2243131541 3.2368846936 3.2466067143 3.2529042144 3.2611314379 3.2650989436 
3.2662470153 3.2666723123 3.0818291592 3.0851032089 3.0842687691 3.0818386608 3.0775958483 3.070980973 3.06169811 
3.0529507783 3.0446616959 3.0369852808 3.0400935605 3.2668664886 3.2636891896 3.124635728 3.2661376797 3.1180419456 
3.1899596481 3.0812211765 3.2571967804 3.1059841104 3.1021453157 3.2663405329 3.0967644846 3.0834751116 3.0836993887 
3.1123066561 3.2663742652 3.2690931232 3.0862123322 3.0832012482 3.0856626878 3.095051991 3.0218839742 3.0333948582 
3.0037067112 3.0097092455 2.9877931208 2.9967197634 3.0103208438 3.0436192805 3.0658539812 3.0483807156 3.0991417065 
3.0704648967 3.0891681104 3.1052065342 3.1165355297 3.1298649111 3.1426349229 3.1545166773 3.1635474901 3.1717104371 
3.1681550188 3.158967353 3.148941086 3.1407067165 3.1338443601 3.1277560714 3.1214157767 3.1155325882 3.109975947 
3.0928801377 3.0891300749 3.0840531306 3.076380079 3.0662490566 3.0560905137 3.04782509 3.0400889824 3.0298971987 
3.1011122531 3.125806554 3.1418113447 3.1551413294 3.1650167059 3.1769428775 3.1893306288 3.1987212091 3.2114968558 
3.2255329279 3.2382438057 3.2481287133 3.2547990251 3.2635073241 3.2677949661 3.2694666312 3.2703778547 3.0801430672 
3.0834671841 3.0823811708 3.0799297651 3.0755887322 3.0690651768 3.059864795 3.0512035455 3.0431425677 3.0356453342 
3.038607908 3.2709280324 3.2662120592 3.1251225236 3.269168778 3.1184450824 3.2042567697 3.0797346504 3.2592948281 
3.1062928491 3.1025547404 3.2699575296 3.096942787 3.0814637252 3.0816469607 3.1125678155 3.2700534431 3.273384069 
3.0852475652 3.0808332095 3.084562999 3.0954653012 3.021920067 3.0337071672 3.0039953712 3.0102149555 2.9881662404 
2.9970322331 3.0106095647 3.0440168192 3.0662948387 3.0483609924 3.0995938284 3.0703541922 3.0891534133 3.1052941469 
3.1167566031 3.1301267789 3.1429841509 3.155132549 3.164560312 3.1728269527 3.169475755 3.1601252211 3.1498446505 
3.1413692653 3.1345064529 3.1282939376 3.1219757468 3.1160000116 3.1103942045 3.0932595737 3.0894491926 3.0843878866 
3.076644186 3.0665554266 3.0563273746 3.0480705733 3.0403024897 3.030227331 3.1016723277 3.1263864112 3.1424976376 
3.1558695744 3.1657747562 3.177714212 3.190083261 3.1996123384 3.2125532818 3.2265901036 3.2393804243 3.2493359218 
3.2561382774 3.2650961304 3.2694738122 3.2715205599 3.2728026346 3.0778071421 3.0816382873 3.0803045606 3.0779948316 
3.0737166851 3.0674302056 3.0583697293 3.0498213194 3.0420202633 3.0347800776 3.0375052263 3.2736025295 3.2679774896 
3.1256844625 3.2710725369 3.118950327 3.2035808257 3.0784625623 3.2607101365 3.1067171862 3.1030416009 3.2721206351 
3.0973202109 3.079484524 3.07970871 3.1129602505 3.2723682878 3.2773455843 3.0839011748 3.0790713607 3.0826485518 
3.0958716895 3.0223593081 3.0340208027 3.0042382673 3.0107078771 2.9885917279 2.9973704312 3.0109485186 3.0445150453 
3.0667919772 3.0481244819 3.0999947217 3.0700811148 3.0889278083 3.1052608511 3.1168750654 3.1302851718 3.1432488662 
3.1557051065 3.1655548975 3.1738803574 3.1709766993 3.1617013409 3.1509575097 3.1421405993 3.1351988461 3.1288686376 
3.1225652509 3.1164810923 3.1108210012 3.0936075395 3.08974858 3.0847005197 3.0768837572 3.0668097148 3.0565326521 
3.0482725717 3.0404960494 3.0303640773 3.1023431032 3.1270420727 3.143342093 3.1567464537 3.1666587382 3.178593534 
3.1909399515 3.2005689452 3.2136783724 3.2276193839 3.2403961512 3.2504247493 3.2572140545 3.2661489007 3.2708145812 
3.2729621519 3.2743756043 3.0805672093 3.0804799927 3.0793183736 3.0772344252 3.073148008 3.0671516078 3.0580359537 
3.0495223124 3.0419219046 3.0348359411 3.0373687484 3.2752351863 3.2692364004 3.1262898373 3.2724636659 3.1194461655 
3.2119470167 3.078813906 3.2617624777 3.107133828 3.103409757 3.2736240413 3.0977006724 3.0787286869 3.0789094926 
3.1133713718 3.2738918014 3.2788745162 3.0851041362 3.0796317898 3.0809082334 3.0962035006 3.0229465848 3.0344614215 
3.0044580187 3.0111881888 2.9891631746 2.9978270469 3.0113928905 3.0452544886 3.067472902 3.0477940812 3.1003223348 
3.0697407212 3.0886123842 3.1051438568 3.1169666757 3.1303169431 3.1434098236 3.1561393917 3.1666804471 3.1749490054 
3.1727050253 3.1636806508 3.1521698269 3.1428987902 3.135780828 3.1293213539 3.1230451721 3.1167930227 3.1111467759 
3.0939029311 3.0900307399 3.084958681 3.0771120392 3.0670019192 3.0567176833 3.0484303924 3.0406858451 3.0302288605 
3.1032472246 3.1279371879 3.144304898 3.1577515931 3.1676840456 3.1795937866 3.1919622533 3.2016626436 3.2149302612 
3.228670771 3.2414520395 3.2514071361 3.2581757642 3.2669967689 3.271761454 3.2740909134 3.27553231 3.0781603546 
3.0803041586 3.0798916114 3.0777447873 3.073697476 3.0676819273 3.0585150912 3.0500813423 3.0425156384 3.0355353705 
3.0379223549 3.2767071056 3.2701785959 3.1268100961 3.2734932787 3.1198476457 3.1835905591 3.0795603982 3.2626353361 
3.1074410268 3.1036938078 3.2747853222 3.0980476543 3.0792337722 3.079456739 3.1136884652 3.2750693491 3.2783401821 
3.0832417461 3.0819426062 3.0804996731 3.0965871639 3.0232709078 3.0348562663 3.0047356965 3.0115309623 2.9899903257 
2.9985026338 3.0120219448 3.046312635 3.0684490133 3.0473368955 3.1007330561 3.069137794 3.0880687648 3.1048159514 
3.1167685312 3.130065605 3.1431629812 3.1564000197 3.1671722389 3.1761744588 3.1747181774 3.1662209188 3.15360374 
3.1436242073 3.1362272106 3.1296100687 3.1234780807 3.1171730425 3.1116185264 3.0942820547 3.0904514138 3.0852842267 
3.0774713175 3.0672467533 3.0569539323 3.048603506 3.0408664818 3.0298836501 3.1042801453 3.1290185985 3.1453342705 
3.1587686103 3.1687476239 3.1805587107 3.1930117074 3.2028452833 3.2161702893 3.2297564411 3.24236038 3.252662426 
3.2593005453 3.2679495869 3.2732646088 3.275796941 3.2773888078 3.0790857843 3.0798656768 3.0795998869 3.0777914228 
3.0737843414 3.0675455142 3.0586519093 3.0504243111 3.0428233045 3.0359478481 3.0384041083 3.2782031988 3.2711838344 
3.1272542877 3.2749917681 3.1202585327 3.1286960616 3.0803637138 3.263620305 3.1078084585 3.1040997707 3.2763315824 
3.0985031671 3.0791119779 3.0793642984 3.1142544671 3.2767735627 3.2822161617 3.0812921666 3.0802414531 3.0799983719 
3.0971099269 3.0232578463 3.0336757982 3.0039328801 3.0115558248 2.9898967618 2.998765086 3.0123770618 3.0465316302 
3.0690940621 3.0462026188 3.1014292334 3.0675353221 3.0866979167 3.1037793003 3.1160367759 3.1293284886 3.1418066901 
3.1565845995 3.1667705388 3.1772609025 3.1772857374 3.1693895496 3.1555258743 3.144610165 3.1367738174 3.1300417896 
3.1239793017 3.1185991738 3.1126686071 3.0948223477 3.0909856111 3.085698422 3.0778754836 3.0674528899 3.0571232418 
3.0486806787 3.0408849027 3.0289512161 3.1049891136 3.1299016172 3.1461832386 3.1594971179 3.1696102078 3.1814657403 
3.1939686047 3.2040328621 3.2174571489 3.231024265 3.2441136683 3.2540321746 3.2609450718 3.2698243625 3.276514426 
3.2786635892 3.2792296054 3.0708314199 3.0790184234 3.0791381587 3.0777209384 3.0735595791 3.0671043821 3.0585669883 
3.0505280841 3.0428573199 3.0360426344 3.0387450651 3.2826951003 3.2734976072 3.1278328907 3.278007267 3.1208826158 
3.0628077894 3.0788940197 3.2651403178 3.108663114 3.104682302 3.2789112726 3.0991278766 3.0790791017 3.0791298287 
3.1155414489 3.2790657755 3.1111356148 3.0780872909 3.0787910094 3.0791971188 3.0975670925 3.0229333096 3.0323866411 
3.0017745402 3.006565174 2.988267585 2.9977640638 3.0121037866 3.0460718116 3.0692904005 3.0443833651 3.101621493 
3.0661378234 3.0850402457 3.1029498852 3.1148073768 3.1280483019 3.1401407749 3.1572123245 3.1683496313 3.179845078 
3.1823539298 3.1739883513 3.1592180816 3.1461955136 3.1375741447 3.1311212054 3.1247642168 3.1185831368 3.1134443612 
3.0954735648 3.0915439264 3.0861495235 3.0785302642 3.0676808662 3.0571506557 3.0484310552 3.0406637941 3.0269418096 
3.1059432656 3.1307229279 3.1473748356 3.1609186146 3.1710833174 3.1829551359 3.195215014 3.2061650556 3.2200784727 
3.2341185701 3.2476888251 3.2607803822 3.265169742 3.2735615138 3.2788034292 3.278301269 3.2816049896 3.0821701989 
3.0802012064 3.0798789182 3.0790059161 3.074613038 3.0686198283 3.0596870933 3.0517234773 3.0440402517 3.0370120649 
3.0400886634 3.211940373 3.2768294765 3.1283060811 3.2789517603 3.1216426938 3.0814178701 3.079117781 3.268735478 
3.1088316962 3.104949751 3.2785611517 3.099683444 3.0799841789 3.0802753208 3.1160989887 3.2774679072 3.0689964681 
3.082398667 3.0800880857 3.0801070822 3.0980658975 3.0253176488 3.0341991206 3.0046366224 3.0078471567 2.9897244056 
3.0003717009 3.0152434937 3.0503100999 3.0710642169 3.0470643276 3.1019477107 3.0661668677 3.0865121931 3.1022422843 
3.1160543122 3.1294225869 3.1416673346 3.1615208123 3.1823047131 3.1866719404 3.185906718 3.1764649548 3.1601930319 
3.1471128013 3.1379434574 3.1310543214 3.1238382025 3.1164193185 3.1112969719 3.0952356481 3.0927762676 3.0869986561 
3.0777197043 3.0679941506 3.056705868 3.0474547368 3.0389520623 3.0245277971 3.1049374312 3.1317267378 3.1528224548 
3.1667336193 3.1757687396 3.1919492467 3.2010045441 3.2114719579 3.2295658506 3.2415794396 3.2574889724 3.266678894 