# vtk DataFile Version 4.2
vtk output
ASCII
DATASET POLYDATA
POINTS 6421 float
2580.1 -2639.11 5800 2580.89 -2639.52 5800 2581.44 -2639.11 5800 
2555.07 -2626.11 5800 2607.51 -2626.11 5800 2538.16 -2613.11 5800 
2551.89 -2624.46 5800 2609.89 -2625.32 5800 2623 -2613.11 5800 
2519.23 -2600.11 5800 2522.89 -2603.3 5800 2636.97 -2600.11 5800 
2504.32 -2587.11 5800 2638.89 -2598.32 5800 2650.93 -2587.11 5800 
2489.42 -2574.11 5800 2493.89 -2578.01 5800 2664.9 -2574.11 5800 
2474.51 -2561.11 5800 2667.89 -2571.32 5800 2678.86 -2561.1 5800 
2459.6 -2548.11 5800 2464.89 -2552.72 5800 2692.83 -2548.1 5800 
2444.7 -2535.11 5800 2696.9 -2544.31 5800 2706.79 -2535.1 5800 
2429.79 -2522.11 5800 2435.89 -2527.43 5800 2720.76 -2522.1 5800 
2414.89 -2509.11 5800 2725.9 -2517.31 5800 2734.72 -2509.1 5800 
2399.98 -2496.11 5800 2406.89 -2502.14 5800 2748.69 -2496.1 5800 
2385.07 -2483.11 5800 2754.9 -2490.31 5800 2762.9 -2483.1 5800 
2370.17 -2470.11 5800 2377.89 -2476.84 5800 2777.98 -2470.09 5800 
2355.26 -2457.11 5800 2783.91 -2465.19 5800 2793.69 -2457.09 5800 
2340.08 -2444.11 5800 2348.89 -2451.55 5800 2809.4 -2444.09 5800 
2323.57 -2431.11 5800 2812.91 -2441.18 5800 2825.1 -2431.09 5800 
2304.72 -2418.11 5800 2319.89 -2428.37 5800 2840.81 -2418.09 5800 
2285.49 -2405.11 5800 2290.89 -2408.76 5800 2841.91 -2417.18 5800 
2856.52 -2405.09 5800 2266.27 -2392.11 5800 2870.92 -2393.17 5800 
2872.23 -2392.08 5800 2247.05 -2379.11 5800 2261.89 -2389.15 5800 
2887.93 -2379.08 5800 2228.72 -2366.11 5800 2232.89 -2369.22 5800 
2899.92 -2369.16 5800 2903.59 -2366.08 5800 2213.79 -2353.1 5800 
2919.35 -2353.08 5800 2198.86 -2340.1 5800 2203.9 -2344.49 5800 
2928.92 -2345.16 5800 2934.3 -2340.08 5800 2183.93 -2327.1 5800 
2948.42 -2327.08 5800 2169 -2314.1 5800 2174.9 -2319.24 5800 
2957.92 -2318.59 5800 2962.77 -2314.08 5800 2154.06 -2301.1 5800 
2976.71 -2301.07 5800 2151.57 -2288.1 5800 2986.93 -2291.54 5800 
2990.64 -2288.07 5800 2151.18 -2275.1 5800 3004.58 -2275.07 5800 
2150.96 -2262.1 5800 3015.93 -2264.49 5800 3018.52 -2262.07 5800 
2150.92 -2249.1 5800 3032.46 -2249.07 5800 2151.72 -2236.1 5800 
3044.93 -2237.44 5800 3046.4 -2236.07 5800 2152.51 -2223.1 5800 
3060.34 -2223.07 5800 2153.3 -2210.1 5800 3073.94 -2210.38 5800 
3074.28 -2210.06 5800 2154.09 -2197.09 5800 3085.4 -2197.06 5800 
2154.88 -2184.09 5800 3091.01 -2184.06 5800 2155.67 -2171.09 5800 
3093.34 -2171.06 5800 2156.46 -2158.09 5800 3094.49 -2158.06 5800 
2157.25 -2145.09 5800 3095.65 -2145.06 5800 2158.04 -2132.09 5800 
3096.81 -2132.06 5800 2158.84 -2119.09 5800 3097.97 -2119.06 5800 
2159.63 -2106.09 5800 3099.13 -2106.06 5800 2160.42 -2093.09 5800 
3100.29 -2093.05 5800 2161.21 -2080.09 5800 3101.45 -2080.05 5800 
2162 -2067.08 5800 3102.6 -2067.05 5800 2162.26 -2054.08 5800 
3102.95 -2063.2 5800 3103.76 -2054.05 5800 2160.13 -2041.08 5800 
3104.92 -2041.05 5800 2157.94 -2028.08 5800 3105.92 -2028.05 5800 
2155.75 -2015.08 5800 3106.64 -2015.05 5800 2153.56 -2002.08 5800 
3107.33 -2002.05 5800 2151.38 -1989.08 5800 3108 -1989.05 5800 
2149.19 -1976.08 5800 3108.68 -1976.04 5800 2147 -1963.08 5800 
3109.35 -1963.04 5800 2144.82 -1950.08 5800 2145.92 -1956.66 5800 
3110.02 -1950.04 5800 2142.63 -1937.08 5800 3110.69 -1937.04 5800 
2140.44 -1924.07 5800 3111.36 -1924.04 5800 2138.26 -1911.07 5800 
3112.03 -1911.04 5800 2136.07 -1898.07 5800 3112.7 -1898.04 5800 
2133.88 -1885.07 5800 3113.38 -1885.04 5800 2131.69 -1872.07 5800 
3114.05 -1872.04 5800 2129.51 -1859.07 5800 3114.72 -1859.04 5800 
2127.32 -1846.07 5800 3115.39 -1846.03 5800 2125.13 -1833.07 5800 
3116.06 -1833.03 5800 2122.95 -1820.07 5800 3116.73 -1820.03 5800 
2120.76 -1807.07 5800 3117.4 -1807.03 5800 2118.57 -1794.06 5800 
3118.08 -1794.03 5800 2116.39 -1781.06 5800 2116.94 -1784.34 5800 
3118.75 -1781.03 5800 2114.2 -1768.06 5800 3119.42 -1768.03 5800 
2112.01 -1755.06 5800 3120.09 -1755.03 5800 2109.82 -1742.06 5800 
3120.76 -1742.03 5800 2107.64 -1729.06 5800 3121.43 -1729.03 5800 
2105.47 -1716.06 5800 3122.1 -1716.02 5800 2103.31 -1703.06 5800 
3122.77 -1703.02 5800 2101.15 -1690.06 5800 3123.48 -1690.02 5800 
2098.99 -1677.06 5800 3127.65 -1677.02 5800 2096.83 -1664.06 5800 
3131.98 -1666.91 5800 3133.68 -1664.02 5800 2094.67 -1651.05 5800 
3144.34 -1651.02 5800 2092.51 -1638.05 5800 3153.98 -1638.02 5800 
2090.35 -1625.05 5800 3160.98 -1629.35 5800 3164.49 -1625.02 5800 
2088.18 -1612.05 5800 3175 -1612.01 5800 2086.35 -1599.05 5800 
2087.95 -1610.63 5800 3185.51 -1599.01 5800 2085.36 -1586.05 5800 
3189.99 -1593.47 5800 3196.01 -1586.01 5800 2084.74 -1573.05 5800 
3206.52 -1573.01 5800 2087.95 -1562.22 5800 2088.89 -1560.05 5800 
3217.03 -1560.01 5800 2093.72 -1547.05 5800 3218.99 -1557.11 5800 
3225.15 -1547.01 5800 2097.23 -1534.05 5800 3231.12 -1534.01 5800 
2101.55 -1521.04 5800 3236.38 -1521.01 5800 2104.88 -1508.04 5800 
3238.72 -1508 5800 2106.78 -1495.04 5800 3240.46 -1495 5800 
2108.68 -1482.04 5800 3241.8 -1482 5800 2110.58 -1469.04 5800 
3242.87 -1469 5800 2111.5 -1456.04 5800 3243.67 -1456 5800 
2110.46 -1443.04 5800 3244.07 -1443 5800 2109.63 -1430.04 5800 
3244.48 -1430 5800 2108.96 -1417.04 5800 3244.88 -1417 5800 
2108.4 -1404.04 5800 3245.29 -1404 5800 2107.92 -1391.03 5800 
3245.69 -1391 5800 2107.52 -1378.03 5800 3246.1 -1377.99 5800 
2107.17 -1365.03 5800 3246.5 -1364.99 5800 2106.86 -1352.03 5800 
3246.91 -1351.99 5800 2106.18 -1339.03 5800 3247.31 -1338.99 5800 
2105.33 -1326.03 5800 3247.72 -1325.99 5800 2104.48 -1313.03 5800 
3248.01 -1316.57 5800 3248.12 -1312.99 5800 2103.64 -1300.03 5800 
3248.53 -1299.99 5800 2102.81 -1287.03 5800 3248.93 -1286.99 5800 
2102 -1274.03 5800 3249.34 -1273.99 5800 2101.24 -1261.02 5800 
3249.74 -1260.98 5800 2100.48 -1248.02 5800 3250.15 -1247.98 5800 
2099.71 -1235.02 5800 3250.55 -1234.98 5800 2098.95 -1222.02 5800 
3250.96 -1221.98 5800 2098.18 -1209.02 5800 3251.36 -1208.98 5800 
2097.42 -1196.02 5800 3251.77 -1195.98 5800 2096.65 -1183.02 5800 
3252.17 -1182.98 5800 2095.89 -1170.02 5800 3252.71 -1169.98 5800 
2095.13 -1157.02 5800 3253.3 -1156.98 5800 2094.36 -1144.02 5800 
3253.87 -1143.98 5800 2093.6 -1131.01 5800 3254.43 -1130.97 5800 
2092.83 -1118.01 5800 3254.99 -1117.97 5800 2092.07 -1105.01 5800 
3255.55 -1104.97 5800 2091.3 -1092.01 5800 3256.36 -1091.97 5800 
2089.33 -1079.01 5800 3257.39 -1078.97 5800 2086.35 -1066.01 5800 
2087.99 -1073.15 5800 3258.52 -1065.97 5800 2083.37 -1053.01 5800 
3259.73 -1052.97 5800 2080.39 -1040.01 5800 3260.93 -1039.97 5800 
2078.49 -1027.01 5800 3262.14 -1026.97 5800 2077.84 -1014.01 5800 
3263.34 -1013.97 5800 2077.56 -1001.01 5800 3264.55 -1000.96 5800 
2079.8 -988.004 5800 3265.75 -987.963 5800 2082.04 -975.003 5800 
3266.96 -974.962 5800 2084.28 -962.002 5800 3268.16 -961.961 5800 
2086.52 -949.001 5800 3269.37 -948.96 5800 2088 -940.423 5800 
2088.75 -936 5800 3270.57 -935.959 5800 2090.96 -922.999 5800 
3271.78 -922.958 5800 2093.18 -909.998 5800 3270.46 -909.957 5800 
2095.4 -896.997 5800 3268.6 -896.956 5800 2097.64 -883.996 5800 
2550.31 -883.98 5800 2552.02 -885.176 5800 2581.02 -895.068 5800 
2610.02 -886.035 5800 2616.39 -883.978 5800 3267.15 -883.955 5800 
2099.89 -870.995 5800 2531.68 -870.98 5800 2639.02 -876.693 5800 
2653.89 -870.975 5800 3264.87 -870.954 5800 2102.15 -857.994 5800 
2514.16 -857.979 5800 2523.02 -864.94 5800 2668.03 -865.541 5800 
2697.03 -864.169 5800 2726.03 -865.383 5800 2736.09 -857.972 5800 
3262.51 -857.953 5800 2104.41 -844.992 5800 2497.68 -844.979 5800 
2750.24 -844.97 5800 3260.14 -844.953 5800 2106.69 -831.991 5800 
2482.05 -831.978 5800 2494.02 -842.078 5800 2755.03 -839.661 5800 
2759.46 -831.969 5800 3257.77 -831.952 5800 2108.93 -818.99 5800 
2466.65 -818.978 5800 2766.94 -818.968 5800 3255.41 -818.951 5800 
2111.17 -805.989 5800 2448.87 -805.978 5800 2465.02 -817.606 5800 
2774.42 -805.966 5800 3253.04 -805.95 5800 2113.39 -792.988 5800 
2430.66 -792.977 5800 2436.02 -799.121 5800 2784.03 -793.135 5800 
2784.16 -792.965 5800 3250.23 -792.949 5800 2115.64 -779.987 5800 
2421.69 -779.977 5800 2797.71 -779.964 5800 3248.05 -784.25 5800 
3246.97 -779.948 5800 2117.01 -771.82 5800 2117.67 -766.986 5800 
2414.23 -766.976 5800 2811.26 -766.962 5800 3243.88 -766.947 5800 
2116.81 -753.985 5800 2117.01 -756.811 5800 2406.69 -753.975 5800 
2407.02 -754.438 5800 2813.04 -765.259 5800 2825.98 -753.961 5800 
3241.44 -753.946 5800 2115.2 -740.984 5800 2398.03 -740.974 5800 
2841.61 -740.959 5800 3239.42 -740.945 5800 2113.48 -727.983 5800 
2390.41 -727.974 5800 2842.04 -740.609 5800 2857.54 -727.957 5800 
3237.73 -727.944 5800 2111.79 -714.982 5800 2383.66 -714.973 5800 
2871.04 -716.939 5800 2872.34 -714.956 5800 3236.28 -714.943 5800 
2110.12 -701.981 5800 2376.37 -701.972 5800 2378.03 -704.27 5800 
2878.16 -701.955 5800 3235.76 -701.942 5800 2109.26 -688.98 5800 
2366.62 -688.971 5800 2883.44 -688.954 5800 3235.71 -688.941 5800 
2110.48 -675.979 5800 2358.2 -675.971 5800 2888.72 -675.952 5800 
3235.65 -675.94 5800 2113.47 -662.978 5800 2350.85 -662.97 5800 
2894 -662.951 5800 3235.58 -662.939 5800 2116.51 -649.977 5800 
2344.73 -649.969 5800 2349.03 -659.465 5800 2899.48 -649.95 5800 
3235.51 -649.938 5800 2117.02 -647.782 5800 2119.42 -636.976 5800 
2339.95 -636.968 5800 2900.05 -648.609 5800 2905.16 -636.949 5800 
3235.43 -636.937 5800 2122.15 -623.975 5800 2334 -623.968 5800 
2910.87 -623.948 5800 3235.36 -623.936 5800 2124.9 -610.974 5800 
2329.25 -610.967 5800 2916.57 -610.946 5800 3235.29 -610.935 5800 
2127.7 -597.973 5800 2324.25 -597.966 5800 2922.83 -597.945 5800 
3235.22 -597.934 5800 2130.54 -584.972 5800 2317.1 -584.965 5800 
2320.03 -589.939 5800 2929.06 -588.19 5800 2930.97 -584.944 5800 
3235.15 -584.933 5800 2131.47 -571.971 5800 2310.77 -571.964 5800 
2938.37 -571.943 5800 3235.75 -571.932 5800 2131.28 -558.969 5800 
2304.07 -558.964 5800 2945.37 -558.941 5800 3237.45 -558.931 5800 
2131.27 -545.969 5800 2297.54 -545.963 5800 2575.08 -545.953 5800 
2581.05 -548.401 5800 2586.71 -545.953 5800 2952 -545.94 5800 
[...]
POINT_DATA 6421
SCALARS Pressure double
LOOKUP_TABLE default
3.0932710339 3.0932710339 3.0932710339 3.0932710339 3.0932710339 3.0932710339 3.0932710339 3.0932710339 3.0932710339 
3.0932710339 3.0932710339 3.0932710339 3.0932710339 3.0932710339 3.0932710339 3.0932710339 3.0932710339 3.0932710339 
3.0932710339 3.0932710339 3.0932710339 3.0932710339 3.0932710339 3.0932710339 3.0932710339 3.0932710339 3.0932710339 
3.0932710339 3.0932710339 3.0932710339 3.0932710339 3.0932710339 3.0932710339 3.0932710339 3.0932710339 3.0932710339 
3.0932710339 3.0932710339 3.0932710339 3.0932710339 3.0932710339 3.0932710339 3.0932710339 3.0932710339 3.0932710339 
3.0932710339 3.0932710339 3.0932710339 3.0932710339 3.0932710339 3.0932710339 3.0932710339 3.0932710339 3.0932710339 
3.0932710339 3.0932710339 3.0932710339 3.0932710339 3.0932710339 3.0932710339 3.0932710339 3.0932710339 3.0932710339 
3.0932710339 3.0932710339 3.0932710339 3.0932710339 3.0932710339 3.0932710339 3.0932710339 3.0932710339 3.0932710339 
3.0932710339 3.0932710339 3.0932710339 3.0932710339 3.0932710339 3.0932710339 3.0932710339 3.0932710339 3.0932710339 
3.0932710339 3.0932710339 3.0932710339 3.0932710339 3.0932710339 3.0932710339 3.0932710339 3.0932710339 3.0932710339 
3.0932710339 3.0932710339 3.0932710339 3.0932710339 3.0932710339 3.0932710339 3.0932710339 3.0932710339 3.0932710339 
3.0932710339 3.0932710339 3.0932710339 3.0932710339 3.0932710339 3.0932710339 3.0932710339 3.0932710339 3.0932710339 
3.0932710339 3.0932710339 3.0932710339 3.0932710339 3.0932710339 3.0932710339 3.0932710339 3.0932710339 3.0932710339 
3.0932710339 3.0932710339 3.0932710339 3.0932710339 3.0932710339 3.0932710339 3.0932710339 3.0932710339 3.0932710339 
3.0932710339 3.0932710339 3.0932710339 3.0932710339 3.0932710339 3.0932710339 3.0932710339 3.0932710339 3.0932710339 
3.0932710339 3.0932710339 3.0932710339 3.0932710339 3.0932710339 3.0932710339 3.0932710339 3.0932710339 3.0932710339 
3.0932710339 3.0932710339 3.0932710339 3.0932710339 3.0932710339 3.0932710339 3.0932710339 3.0932710339 3.0932710339 
3.0932710339 3.0932710339 3.0932710339 3.0932710339 3.0932710339 3.0932710339 3.0932710339 3.0932710339 3.0932710339 
3.0932710339 3.0932710339 3.0932710339 3.0932710339 3.0932710339 3.0932710339 3.0932710339 3.0932710339 3.0932710339 
3.0932710339 3.0932710339 3.0932710339 3.0932710339 3.0932710339 3.0932710339 3.0932710339 3.0932710339 3.0932710339 
3.0932710339 3.0932710339 3.0932710339 3.0932710339 3.0932710339 3.0932710339 3.0932710339 3.0932710339 3.0932710339 
3.0932710339 3.0932710339 3.0932710339 3.0932710339 3.0932710339 3.0932710339 3.0932710339 3.0932710339 3.0932710339 
3.0932710339 3.0932710339 3.0932710339 3.0932710339 3.0932710339 3.0932710339 3.0932710339 3.0932710339 3.0932710339 
3.0932710339 3.0932710339 3.0932710339 3.0932710339 3.0932710339 3.0932710339 3.0932710339 3.0932710339 3.0932710339 
3.0932710339 3.0932710339 3.0932710339 3.0932710339 3.0932710339 3.0932710339 3.0932710339 3.0932710339 3.0932710339 
3.0932710339 3.0932710339 3.0932710339 3.0932710339 3.0932710339 3.0932710339 3.0932710339 3.0932710339 3.0932710339 
3.0932710339 3.0932710339 3.0932710339 3.0932710339 3.0932710339 3.0932710339 3.0932710339 3.0932710339 3.0932710339 
3.0932710339 3.0932710339 3.0932710339 3.0932710339 3.0932710339 3.0932710339 3.0932710339 3.0932710339 3.0932710339 
3.0932710339 3.0932710339 3.0932710339 3.0932710339 3.0932710339 3.0932710339 3.0932710339 3.0932710339 3.0932710339 
3.0932710339 3.0932710339 3.0932710339 3.0932710339 3.0932710339 3.0932710339 3.0932710339 3.0932710339 3.0932710339 
3.0932710339 3.0932710339 3.0932710339 3.0932710339 3.0932710339 3.0932710339 3.0932710339 3.0932710339 3.0932710339 
3.0932710339 3.0932710339 3.0932710339 3.0932710339 3.0932710339 3.0932710339 3.0932710339 3.0932710339 3.0932710339 
3.0932710339 3.0932710339 3.0932710339 3.0932710339 3.0932710339 3.0932710339 3.0932710339 3.0932710339 3.0932710339 
3.0932710339 3.0932710339 3.0932710339 3.0932710339 3.0932710339 3.0932710339 3.0932710339 3.0932710339 3.0932710339 
3.0932710339 3.0932710339 3.0932710339 3.0932710339 3.0932710339 3.0932710339 3.0932710339 3.0932710339 3.0932710339 
3.1078652246 3.1078652246 3.1078652246 3.1078652246 3.1078652246 3.0932710339 3.0932710339 3.1078652246 3.1078652246 
3.1078652246 3.0932710339 3.0932710339 3.1078652246 3.1078652246 3.1078652246 3.1078652246 3.1078652246 3.1078652246 
3.0932710339 3.0932710339 3.1078652246 3.1078652246 3.0932710339 3.0932710339 3.1078652246 3.1078652246 3.1078652246 
3.1078652246 3.0932710339 3.0932710339 3.1078652246 3.1078652246 3.0932710339 3.0932710339 3.1078652246 3.1078652246 
3.1078652246 3.0932710339 3.0932710339 3.1078652246 3.1078652246 3.1078652246 3.1078652246 3.0932710339 3.0932710339 
3.1078652246 3.1078652246 3.0932710339 3.0932710339 3.0932710339 3.0932710339 3.1078652246 3.1078652246 3.0932710339 
3.0932710339 3.0932710339 3.1078652246 3.1078652246 3.1078652246 3.1078652246 3.0932710339 3.0932710339 3.1078652246 
3.1078652246 3.0932710339 3.0932710339 3.1078652246 3.1078652246 3.1078652246 3.0932710339 3.0932710339 3.1078652246 
3.1078652246 3.1078652246 3.0932710339 3.0932710339 3.1078652246 3.1078652246 3.1078652246 3.0932710339 3.0932710339 
3.1078652246 3.1078652246 3.0932710339 3.0932710339 3.1078652246 3.1078652246 3.0932710339 3.0932710339 3.1078652246 
3.1078652246 3.0932710339 3.0932710339 3.1078652246 3.1078652246 3.1078652246 3.0932710339 3.0932710339 3.0932710339 
3.1078652246 3.1078652246 3.1078652246 3.0932710339 3.0932710339 3.1078652246 3.1078652246 3.0932710339 3.0932710339 
3.1078652246 3.1078652246 3.0932710339 3.0932710339 3.1078652246 3.1078652246 3.0932710339 3.0932710339 3.1078652246 
3.1078652246 3.1078652246 3.1078652246 3.0932710339 3.0932710339 3.1078652246 3.1078652246 3.0932710339 3.0932710339 
3.1078652246 3.1078652246 3.0932710339 3.0932710339 3.1078652246 3.1224594153 3.1224594153 3.1224594153 3.1078652246 
3.0932710339 3.0932710339 3.1078652246 3.1224594153 3.1224594153 3.1224594153 3.1224594153 3.1078652246 3.1078652246 
3.0932710339 3.0932710339 3.1078652246 3.1078652246 3.1224594153 3.1224594153 3.1224594153 3.1224594153 3.1078652246 
3.0932710339 3.0786768432 3.0786768432 3.0786768432 3.0932710339 3.1078652246 3.1224594153 3.1224594153 3.1224594153 
3.1224594153 3.1078652246 3.0932710339 3.0786768432 3.0786768432 3.0786768432 3.0786768432 3.0786768432 3.0786768432 
3.0786768432 3.0786768432 3.0786768432 3.0786768432 3.0932710339 3.1078652246 3.1224594153 3.1224594153 3.1224594153 
3.1078652246 3.0932710339 3.0786768432 3.0786768432 3.0786768432 3.0786768432 3.0786768432 3.0786768432 3.0786768432 
3.0786768432 3.0932710339 3.1078652246 3.1224594153 3.1224594153 3.1224594153 3.1224594153 3.1078652246 3.0932710339 
3.0786768432 3.0786768432 3.0786768432 3.0786768432 3.0786768432 3.0932710339 3.1078652246 3.1224594153 3.1224594153 
3.1078652246 3.1078652246 3.0932710339 3.0932710339 3.0786768432 3.0786768432 3.0786768432 3.0786768432 3.0786768432 
3.0786768432 3.0786768432 3.0932710339 3.1078652246 3.1078652246 3.1224594153 3.1224594153 3.1224594153 3.1078652246 
3.0932710339 3.0786768432 3.0786768432 3.0786768432 3.0786768432 3.0786768432 3.0932710339 3.1078652246 3.1224594153 
3.1224594153 3.1224594153 3.1078652246 3.0932710339 3.0786768432 3.0786768432 3.0786768432 3.0786768432 3.0786768432 
3.0786768432 3.0786768432 3.0932710339 3.1078652246 3.1224594153 3.1224594153 3.1078652246 3.0932710339 3.0786768432 
3.0786768432 3.0786768432 3.0786768432 3.0786768432 3.0932710339 3.1078652246 3.1224594153 3.1224594153 3.1224594153 
3.1224594153 3.1078652246 3.0932710339 3.0786768432 3.0786768432 3.0786768432 3.0786768432 3.0786768432 3.0786768432 
3.0932710339 3.1078652246 3.1224594153 3.1224594153 3.1078652246 3.1078652246 3.0932710339 3.0786768432 3.0786768432 
3.0786768432 3.0786768432 3.0786768432 3.0932710339 3.0932710339 3.1078652246 3.1224594153 3.1224594153 3.1224594153 
3.1078652246 3.0932710339 3.0786768432 3.0786768432 3.0786768432 3.0786768432 3.0786768432 3.0786768432 3.0932710339 
3.1078652246 3.1224594153 3.1224594153 3.1078652246 3.0932710339 3.0786768432 3.0786768432 3.0786768432 3.0786768432 
3.0786768432 3.0786768432 3.0932710339 3.1078652246 3.1224594153 3.1224594153 3.1224594153 3.1078652246 3.0932710339 
3.0786768432 3.0786768432 3.0786768432 3.0786768432 3.0786768432 3.0932710339 3.1078652246 3.1224594153 3.1224594153 
3.1224594153 3.1078652246 3.0932710339 3.0786768432 3.0786768432 3.0786768432 3.0786768432 3.0786768432 3.0932710339 
3.1078652246 3.1224594153 3.137053606 3.137053606 3.137053606 3.137053606 3.137053606 3.1224594153 3.1078652246 
3.0932710339 3.0786768432 3.0786768432 3.0786768432 3.0786768432 3.0786768432 3.0786768432 3.0932710339 3.1078652246 
3.1224594153 3.137053606 3.137053606 3.137053606 3.1224594153 3.1078652246 3.1078652246 3.0932710339 3.0786768432 
3.0786768432 3.0786768432 3.0786768432 3.0932710339 3.1078652246 3.1224594153 3.1224594153 3.137053606 3.137053606 
3.137053606 3.137053606 3.1224594153 3.1078652246 3.0932710339 3.0786768432 3.0786768432 3.0786768432 3.0786768432 
3.0786768432 3.0932710339 3.1078652246 3.1078652246 3.1224594153 3.137053606 3.137053606 3.137053606 3.1224594153 
3.1224594153 3.1078652246 3.0932710339 3.0786768432 3.0786768432 3.0786768432 3.0786768432 3.0786768432 3.0786768432 
3.0932710339 3.1078652246 3.1224594153 3.137053606 3.137053606 3.137053606 3.137053606 3.1224594153 3.1078652246 
3.0932710339 3.0786768432 3.0786768432 3.0786768432 3.0786768432 3.0786768432 3.0932710339 3.1078652246 3.1224594153 
3.137053606 3.137053606 3.1224594153 3.1078652246 3.0932710339 3.0786768432 3.0786768432 3.0786768432 3.0786768432 
3.0932710339 3.1078652246 3.1224594153 3.1224594153 3.137053606 3.137053606 3.137053606 3.1224594153 3.1078652246 
3.0932710339 3.0786768432 3.0786768432 3.0786768432 3.0786768432 3.0786768432 3.0932710339 3.1078652246 3.1224594153 
3.137053606 3.137053606 3.137053606 3.1224594153 3.1078652246 3.0932710339 3.0786768432 3.0786768432 3.0786768432 
3.0786768432 3.0786768432 3.0932710339 3.1078652246 3.1224594153 3.137053606 3.137053606 3.1224594153 3.1078652246 
3.0932710339 3.0786768432 3.0786768432 3.0786768432 3.0786768432 3.0932710339 3.1078652246 3.1224594153 3.137053606 
3.137053606 3.137053606 3.1224594153 3.1224594153 3.1078652246 3.0932710339 3.0786768432 3.0786768432 3.0786768432 
3.0640826525 3.0640826525 3.0640826525 3.0640826525 3.0640826525 3.0640826525 3.0786768432 3.0932710339 3.1078652246 
3.1224594153 3.137053606 3.137053606 3.137053606 3.1224594153 3.1078652246 3.0932710339 3.0786768432 3.0786768432 
3.0786768432 3.0786768432 3.0786768432 3.0640826525 3.0640826525 3.0640826525 3.0640826525 3.0640826525 3.0786768432 
3.0932710339 3.1078652246 3.1224594153 3.1224594153 3.137053606 3.1516477967 3.1516477967 3.1516477967 3.1516477967 
3.137053606 3.1224594153 3.1078652246 3.0932710339 3.0786768432 3.0786768432 3.0786768432 3.0786768432 3.0640826525 
3.0640826525 3.0640826525 3.0786768432 3.0932710339 3.1078652246 3.1078652246 3.1224594153 3.137053606 3.137053606 
3.1516477967 3.1516477967 3.1516477967 3.1516477967 3.1516477967 3.137053606 3.1224594153 3.1078652246 3.0932710339 
3.0786768432 3.0786768432 3.0786768432 3.0640826525 3.0640826525 3.0640826525 3.0786768432 3.0932710339 3.1078652246 
3.1224594153 3.137053606 3.1516477967 3.1516477967 3.1516477967 3.137053606 3.1224594153 3.1078652246 3.0932710339 
3.0786768432 3.0786768432 3.0786768432 3.0640826525 3.0640826525 3.0786768432 3.0932710339 3.1078652246 3.1224594153 
3.137053606 3.137053606 3.1516477967 3.1516477967 3.1516477967 3.137053606 3.1224594153 3.1078652246 3.0932710339 
3.0786768432 3.0786768432 3.0786768432 3.0786768432 3.0640826525 3.0640826525 3.0640826525 3.0786768432 3.0932710339 
3.1078652246 3.1224594153 3.1224594153 3.137053606 3.1516477967 3.1516477967 3.1516477967 3.137053606 3.1224594153 
3.1078652246 3.0932710339 3.0786768432 3.0786768432 3.0786768432 3.0786768432 3.0640826525 3.0640826525 3.0786768432 
3.0786768432 3.0932710339 3.1078652246 3.1224594153 3.137053606 3.1516477967 3.1516477967 3.1516477967 3.137053606 
3.137053606 3.1224594153 3.1078652246 3.0932710339 3.0786768432 3.0786768432 3.0786768432 3.0786768432 3.0786768432 
3.0786768432 3.0786768432 3.0786768432 3.0786768432 3.0786768432 3.0640826525 3.0640826525 3.0786768432 3.0932710339 
3.1078652246 3.1224594153 3.137053606 3.1516477967 3.1516477967 3.137053606 3.1224594153 3.1078652246 3.0932710339 
3.0786768432 3.0786768432 3.0786768432 3.0786768432 3.0640826525 3.0640826525 3.0494884618 3.0494884618 3.0494884618 
3.0494884618 3.0494884618 3.0494884618 3.0640826525 3.0640826525 3.0786768432 3.0932710339 3.1078652246 3.1224594153 
3.137053606 3.137053606 3.1516477967 3.1516477967 3.1516477967 3.137053606 3.137053606 3.1224594153 3.1078652246 
3.0932710339 3.0786768432 3.0786768432 3.0786768432 3.0640826525 3.0494884618 3.0494884618 3.0494884618 3.0640826525 
3.0786768432 3.0932710339 3.1078652246 3.1224594153 3.1224594153 3.137053606 3.1516477967 3.1516477967 3.1516477967 
3.137053606 3.1224594153 3.1078652246 3.0932710339 3.0932710339 3.0786768432 3.0640826525 3.0640826525 3.0640826525 
3.0640826525 3.0786768432 3.0786768432 3.0786768432 3.0786768432 3.0640826525 3.0494884618 3.0494884618 3.0494884618 
3.0640826525 3.0786768432 3.0932710339 3.1078652246 3.1078652246 3.1224594153 3.137053606 3.1516477967 3.1516477967 
3.137053606 3.1224594153 3.1078652246 3.0932710339 3.0786768432 3.0640826525 3.0640826525 3.0640826525 3.0786768432 
3.0786768432 3.0786768432 3.0786768432 3.0640826525 3.0494884618 3.0494884618 3.0640826525 3.0786768432 3.0932710339 
3.0932710339 3.1078652246 3.1224594153 3.137053606 3.137053606 3.1516477967 3.1516477967 3.1516477967 3.137053606 
3.1224594153 3.1078652246 3.0932710339 3.0786768432 3.0786768432 3.0640826525 3.0640826525 3.0640826525 3.0640826525 
3.0786768432 3.0786768432 3.0640826525 3.0494884618 3.0348942711 3.0348942711 3.0348942711 3.0348942711 3.0348942711 
3.0494884618 3.0494884618 3.0640826525 3.0786768432 3.0932710339 3.1078652246 3.1224594153 3.137053606 3.1516477967 
2.9619233175 2.9619233175 2.9765175082 2.9765175082 2.991111699 2.991111699 3.0057058897 3.0057058897 3.0203000804 
3.0203000804 3.0348942711 3.0348942711 3.0494884618 3.0494884618 3.0640826525 3.0640826525 3.0786768432 3.0786768432 
3.0932710339 3.0932710339 3.1078652246 3.1078652246 3.1224594153 3.1224594153 3.137053606 3.137053606 3.1516477967 
3.1516477967 2.9619233175 2.9765175082 2.991111699 3.0057058897 3.0203000804 3.0348942711 3.0494884618 3.0640826525 
3.0786768432 3.0932710339 3.1078652246 3.1224594153 3.137053606 3.1516477967 2.9619233175 2.9765175082 2.991111699 
3.0057058897 3.0203000804 3.0348942711 3.0494884618 3.0640826525 3.0786768432 3.0932710339 3.1078652246 3.1224594153 
3.137053606 3.1516477967 2.9619233175 2.9765175082 2.991111699 3.0057058897 3.0203000804 3.0348942711 3.0494884618 
3.0640826525 3.0786768432 3.0932710339 3.1078652246 3.1224594153 3.137053606 3.1516477967 2.9619233175 2.9765175082 
2.991111699 3.0057058897 3.0203000804 3.0348942711 3.0494884618 3.0640826525 3.0786768432 3.0932710339 3.1078652246 
3.1224594153 3.137053606 3.1516477967 2.9619233175 2.9765175082 2.991111699 3.0057058897 3.0203000804 3.0348942711 
3.0494884618 3.0640826525 3.0786768432 3.0932710339 3.1078652246 3.1224594153 3.137053606 3.1516477967 2.9619233175 
2.9765175082 2.991111699 3.0057058897 3.0203000804 3.0348942711 3.0494884618 3.0640826525 3.0786768432 3.0932710339 
3.1078652246 3.1224594153 3.137053606 3.1516477967 2.9619233175 2.9765175082 2.991111699 3.0057058897 3.0203000804 
3.0348942711 3.0494884618 3.0640826525 3.0786768432 3.0932710339 3.1078652246 3.1224594153 3.137053606 3.1516477967 
2.9619233175 2.9765175082 2.991111699 3.0057058897 3.0203000804 3.0348942711 3.0494884618 3.0640826525 3.0786768432 
3.0932710339 3.1078652246 3.1224594153 3.137053606 3.1516477967 2.9619233175 2.9765175082 2.991111699 3.0057058897 
3.0203000804 3.0348942711 3.0494884618 3.0640826525 3.0786768432 3.0932710339 3.1078652246 3.1224594153 3.137053606 
3.1516477967 2.9619233175 2.9765175082 2.991111699 3.0057058897 3.0203000804 3.0348942711 3.0494884618 3.0640826525 
3.0786768432 3.0932710339 3.1078652246 3.1224594153 3.137053606 3.1516477967 2.9619233175 2.9765175082 2.991111699 
3.0057058897 3.0203000804 3.0348942711 3.0494884618 3.0640826525 3.0786768432 3.0932710339 3.1078652246 3.1224594153 
3.137053606 2.9619233175 2.9765175082 2.991111699 3.0057058897 3.0203000804 3.0348942711 3.0494884618 3.0640826525 
3.0786768432 3.0932710339 3.1078652246 3.1224594153 3.137053606 2.9619233175 2.9765175082 2.991111699 3.0057058897 
3.0203000804 3.0348942711 3.0494884618 3.0640826525 3.0786768432 3.0932710339 3.1078652246 3.1224594153 3.137053606 
2.9619233175 2.9765175082 2.991111699 3.0057058897 3.0203000804 3.0348942711 3.0494884618 3.0640826525 3.0786768432 
3.0932710339 3.1078652246 3.1224594153 2.9619233175 2.9765175082 2.991111699 3.0057058897 3.0203000804 3.0348942711 
3.0494884618 3.0640826525 3.0786768432 3.0932710339 3.1078652246 3.1224594153 3.1224594153 3.1078652246 3.0932710339 
3.0786768432 3.0640826525 3.0640826525 3.0640826525 3.0786768432 3.0786768432 3.0786768432 3.0640826525 3.0494884618 
3.0348942711 3.0348942711 3.0494884618 3.0640826525 3.0786768432 3.0932710339 3.1078652246 3.1224594153 2.9619233175 
2.9619233175 2.9765175082 2.9765175082 2.991111699 2.991111699 3.0057058897 3.0057058897 3.0203000804 3.0203000804 
3.0348942711 3.0348942711 3.0494884618 3.0494884618 3.0640826525 3.0640826525 3.0786768432 3.0786768432 3.0932710339 
3.0932710339 3.1078652246 3.1078652246 3.1224594153 3.1224594153 3.137053606 2.9619233175 2.9765175082 2.991111699 
3.0057058897 3.0203000804 3.0348942711 3.0494884618 3.0640826525 3.0786768432 3.0932710339 3.1078652246 3.1224594153 
3.137053606 2.9619233175 2.9765175082 2.991111699 3.0057058897 3.0203000804 3.0348942711 3.0494884618 3.0640826525 
3.0786768432 3.0932710339 3.1078652246 3.1224594153 3.137053606 3.1516477967 2.9619233175 2.9765175082 2.991111699 
3.0057058897 3.0203000804 3.0348942711 3.0494884618 3.0640826525 3.0786768432 3.0932710339 3.1078652246 3.1224594153 
2.9619233175 2.9765175082 2.991111699 3.0057058897 3.0203000804 3.0348942711 3.0494884618 3.0640826525 3.0786768432 
3.0932710339 3.1078652246 3.1224594153 2.9619233175 2.9765175082 2.991111699 3.0057058897 3.0203000804 3.0348942711 
3.0494884618 3.0640826525 3.0786768432 3.0932710339 3.1078652246 3.1224594153 2.9619233175 2.9765175082 2.991111699 
3.0057058897 3.0203000804 3.0348942711 3.0494884618 3.0640826525 3.0786768432 3.0932710339 3.1078652246 3.1224594153 
2.9619233175 2.9765175082 2.991111699 3.0057058897 3.0203000804 3.0348942711 3.0494884618 3.0640826525 3.0786768432 
3.0932710339 3.1078652246 3.1224594153 2.9619233175 2.9765175082 2.991111699 3.0057058897 3.0203000804 3.0348942711 
3.0494884618 3.0640826525 3.0786768432 3.0932710339 3.1078652246 2.9619233175 2.9765175082 2.991111699 3.0057058897 
3.0203000804 3.0348942711 3.0494884618 3.0640826525 3.0786768432 3.0932710339 3.1078652246 2.9619233175 2.9765175082 
2.991111699 3.0057058897 3.0203000804 3.0348942711 3.0494884618 3.0640826525 3.0786768432 3.0932710339 3.1078652246 
3.1078652246 3.0932710339 3.0786768432 3.0640826525 3.0640826525 3.0640826525 3.0786768432 3.0786768432 3.0786768432 
3.0640826525 3.0494884618 3.0348942711 3.0348942711 3.0203000804 3.0203000804 3.0203000804 3.0203000804 3.0348942711 
3.0494884618 3.0640826525 3.0786768432 3.0932710339 2.9619233175 2.9619233175 2.9765175082 2.9765175082 2.991111699 
2.991111699 3.0057058897 3.0057058897 3.0203000804 3.0203000804 3.0348942711 3.0348942711 3.0494884618 3.0494884618 
3.0640826525 3.0640826525 3.0786768432 3.0786768432 3.0932710339 3.0932710339 3.1078652246 2.9619233175 2.9765175082 