# vtk DataFile Version 4.2
vtk output
ASCII
DATASET POLYDATA
POINTS 7128 float
1588.82 -3128.14 0 1590.86 -3131.61 0 1599.89 -3128.14 0 
1578.81 -3111.14 0 1627.86 -3120.51 0 1650.67 -3111.14 0 
1568.8 -3094.14 0 1664.86 -3105.31 0 1692.08 -3094.14 0 
1558.79 -3077.14 0 1701.86 -3090.12 0 1733.49 -3077.13 0 
1548.77 -3060.14 0 1553.86 -3068.78 0 1738.87 -3074.93 0 
1774.89 -3060.13 0 1538.76 -3043.14 0 1775.87 -3059.73 0 
1812.87 -3044.54 0 1816.3 -3043.13 0 1528.75 -3026.14 0 
1849.87 -3029.35 0 1857.71 -3026.13 0 1518.74 -3009.14 0 
1886.87 -3014.15 0 1906.78 -3009.13 0 1508.73 -2992.14 0 
1516.86 -3005.95 0 1923.88 -3006.46 0 1960.88 -3002.19 0 
1997.88 -2997.92 0 2034.88 -2993.65 0 2048.17 -2992.12 0 
1498.71 -2975.13 0 2071.88 -2989.39 0 2108.88 -2985.12 0 
2145.88 -2980.85 0 2182.88 -2976.58 0 2195.6 -2975.12 0 
1488.7 -2958.13 0 2219.89 -2972.32 0 2256.89 -2968.05 0 
2268.1 -2958.11 0 1478.69 -2941.13 0 1479.87 -2943.13 0 
2279.38 -2941.11 0 1468.68 -2924.13 0 2286.02 -2924.11 0 
1443.8 -2907.13 0 2289.85 -2907.11 0 1402.11 -2890.13 0 
1405.87 -2891.67 0 1442.87 -2906.75 0 2293.32 -2890.11 0 
1360.41 -2873.13 0 1368.87 -2876.58 0 2293.89 -2887.33 0 
2296.8 -2873.11 0 1318.71 -2856.13 0 1331.87 -2861.5 0 
2300.27 -2856.11 0 1277.02 -2839.13 0 1294.87 -2846.41 0 
2303.75 -2839.1 0 1235.32 -2822.13 0 1257.87 -2831.32 0 
2307.22 -2822.1 0 1193.63 -2805.13 0 1220.87 -2816.24 0 
2310.7 -2805.1 0 1151.93 -2788.13 0 1183.87 -2801.15 0 
2314.17 -2788.1 0 1110.23 -2771.13 0 1146.87 -2786.07 0 
2317.65 -2771.1 0 1070.15 -2754.13 0 1072.87 -2755.9 0 
1109.87 -2770.98 0 2321.12 -2754.1 0 1048.16 -2737.13 0 
2324.6 -2737.1 0 1031.16 -2720.13 0 1035.87 -2724.83 0 
2328.07 -2720.1 0 1014.15 -2703.13 0 2330.9 -2706.24 0 
2331.55 -2703.1 0 997.129 -2686.13 0 998.869 -2687.87 0 
2335.02 -2686.09 0 980.111 -2669.13 0 2338.5 -2669.09 0 
963.093 -2652.13 0 2341.97 -2652.09 0 955.138 -2635.13 0 
961.87 -2650.91 0 2345.45 -2635.09 0 948.032 -2618.13 0 
2348.92 -2618.09 0 941.076 -2601.13 0 2352.39 -2601.09 0 
934.263 -2584.13 0 2355.87 -2584.09 0 927.59 -2567.13 0 
2359.34 -2567.09 0 921.289 -2550.13 0 924.874 -2560.11 0 
2362.82 -2550.09 0 915.181 -2533.12 0 2366.29 -2533.08 0 
909.073 -2516.12 0 2367.92 -2525.15 0 2369.77 -2516.08 0 
902.965 -2499.12 0 2373.24 -2499.08 0 896.857 -2482.12 0 
2376.72 -2482.08 0 890.749 -2465.12 0 2380.19 -2465.08 0 
884.641 -2448.12 0 887.88 -2457.13 0 2383.67 -2448.08 0 
878.533 -2431.12 0 2387.14 -2431.08 0 872.425 -2414.12 0 
2390.62 -2414.08 0 866.317 -2397.12 0 2394.09 -2397.08 0 
860.209 -2380.12 0 2397.57 -2380.08 0 854.101 -2363.12 0 
2401.04 -2363.07 0 847.993 -2346.11 0 850.885 -2354.16 0 
2404.51 -2346.07 0 841.885 -2329.11 0 2404.93 -2344.06 0 
2407.99 -2329.07 0 835.777 -2312.11 0 2411.46 -2312.07 0 
829.669 -2295.11 0 2414.94 -2295.07 0 823.561 -2278.11 0 
2418.41 -2278.07 0 817.453 -2261.11 0 2421.89 -2261.07 0 
811.345 -2244.11 0 813.89 -2251.19 0 2425.36 -2244.07 0 
805.237 -2227.11 0 2429.98 -2227.07 0 799.129 -2210.11 0 
2441.94 -2210.9 0 2442.53 -2210.06 0 793.021 -2193.11 0 
2456.05 -2193.06 0 786.913 -2176.11 0 2469.58 -2176.06 0 
780.805 -2159.11 0 2478.94 -2164.29 0 2483.1 -2159.06 0 
774.904 -2142.1 0 776.895 -2148.22 0 2496.63 -2142.06 0 
772.642 -2125.1 0 2510.15 -2125.06 0 770.651 -2108.1 0 
2515.94 -2117.77 0 2521.63 -2108.06 0 768.661 -2091.1 0 
2528.02 -2091.05 0 766.67 -2074.1 0 2531.25 -2074.05 0 
764.68 -2057.1 0 2530.63 -2057.05 0 762.689 -2040.1 0 
2530.02 -2040.05 0 760.699 -2023.1 0 2529.4 -2023.05 0 
758.709 -2006.1 0 2528.79 -2006.05 0 756.718 -1989.1 0 
2528.17 -1989.05 0 754.728 -1972.1 0 2527.56 -1972.05 0 
752.737 -1955.09 0 2526.94 -1955.05 0 750.747 -1938.09 0 
2526.32 -1938.05 0 748.756 -1921.09 0 2525.71 -1921.04 0 
746.766 -1904.09 0 2525.09 -1904.04 0 744.776 -1887.09 0 
2524.48 -1887.04 0 742.785 -1870.09 0 2523.86 -1870.04 0 
740.795 -1853.09 0 2523.25 -1853.04 0 738.804 -1836.09 0 
739.911 -1845.54 0 2522.63 -1836.04 0 736.814 -1819.09 0 
2522.02 -1819.04 0 734.823 -1802.09 0 2521.4 -1802.04 0 
732.833 -1785.09 0 2520.79 -1785.04 0 730.843 -1768.08 0 
2520.17 -1768.04 0 726.814 -1751.08 0 2519.56 -1751.03 0 
721.83 -1734.08 0 2518.94 -1734.03 0 718.092 -1717.08 0 
2518.32 -1717.03 0 712.632 -1700.08 0 2517.71 -1700.03 0 
706.312 -1683.08 0 2517.09 -1683.03 0 699.477 -1666.08 0 
702.92 -1675.49 0 2516.48 -1666.03 0 -481.11 -1652.7 0 
-487.456 -1649.11 0 -444.11 -1660.65 0 -407.108 -1650.78 0 
-400.822 -1649.11 0 694.541 -1649.08 0 2515.97 -1652.01 0 
2515.86 -1649.03 0 -517.544 -1632.11 0 -370.107 -1640.92 0 
-337.031 -1632.11 0 691.437 -1632.08 0 2515.25 -1632.03 0 
-518.11 -1631.79 0 -547.632 -1615.11 0 -333.105 -1631.06 0 
-296.103 -1621.2 0 -273.23 -1615.1 0 688.065 -1615.08 0 
2514.63 -1615.03 0 -555.11 -1610.89 0 -577.721 -1598.11 0 
-259.102 -1611.34 0 -222.1 -1600.55 0 -213.952 -1598.1 0 
684.693 -1598.08 0 2514.02 -1598.03 0 -592.109 -1589.98 0 
-607.809 -1581.11 0 -185.098 -1589.43 0 -157.385 -1581.1 0 
681.321 -1581.07 0 2513.47 -1581.03 0 -629.109 -1569.07 0 
-637.897 -1564.11 0 -148.097 -1578.31 0 -111.095 -1567.18 0 
-100.819 -1564.09 0 677.949 -1564.07 0 2514.22 -1564.02 0 
-666.109 -1548.17 0 -667.985 -1547.11 0 -74.0935 -1556.06 0 
-65.386 -1547.09 0 674.577 -1547.07 0 2515.54 -1547.02 0 
-698.073 -1530.11 0 -48.0785 -1530.09 0 671.205 -1530.07 0 
2515.98 -1541.42 0 2516.86 -1530.02 0 -703.109 -1527.26 0 
-728.161 -1513.11 0 -37.0904 -1519.83 0 -32.7012 -1513.09 0 
667.833 -1513.07 0 2518.19 -1513.02 0 -740.109 -1506.36 0 
-754.288 -1496.11 0 -22.2091 -1496.09 0 664.461 -1496.07 0 
665.93 -1503.47 0 2519.51 -1496.02 0 -770.479 -1479.11 0 
-12.8356 -1479.09 0 661.089 -1479.07 0 2520.83 -1479.02 0 
-777.107 -1469.52 0 -782.022 -1462.11 0 -3.29202 -1462.09 0 
657.717 -1462.07 0 1331.44 -1462.05 0 1331.95 -1462.32 0 
1368.95 -1472.09 0 1405.95 -1473.12 0 1442.95 -1474.15 0 
1479.95 -1475.18 0 1516.95 -1476.21 0 1553.96 -1477.24 0 
1582.76 -1462.04 0 2522.16 -1462.02 0 -793.29 -1445.11 0 
-0.0857137 -1457.22 0 8.06129 -1445.08 0 654.346 -1445.07 0 
1299.49 -1445.05 0 1590.96 -1456.04 0 1605.56 -1445.04 0 
2523.48 -1445.02 0 -804.558 -1428.11 0 20.3851 -1428.08 0 
650.974 -1428.07 0 1267.54 -1428.05 0 1294.95 -1442.63 0 
1627.96 -1428.17 0 1628.13 -1428.04 0 2524.8 -1428.02 0 
-814.105 -1413.7 0 -815.826 -1411.1 0 33.4345 -1411.08 0 
647.602 -1411.07 0 1238.89 -1411.05 0 1257.95 -1422.95 0 
1650.7 -1411.04 0 2526.12 -1411.01 0 -827.094 -1394.1 0 
36.9183 -1406.54 0 46.4838 -1394.08 0 644.23 -1394.06 0 
1214.03 -1394.05 0 1220.95 -1401.75 0 1664.96 -1400.29 0 
1673.34 -1394.04 0 2527.45 -1394.01 0 -838.363 -1377.1 0 
59.5332 -1377.08 0 640.858 -1377.06 0 1199.89 -1377.05 0 
1695.84 -1377.04 0 2528.77 -1377.01 0 -849.631 -1360.1 0 
72.5825 -1360.08 0 637.486 -1360.06 0 1183.47 -1360.05 0 
1183.95 -1360.59 0 1701.97 -1372.42 0 1720.22 -1360.03 0 
2528.18 -1360.01 0 -851.103 -1357.88 0 -860.899 -1343.1 0 
73.9221 -1358.33 0 85.6318 -1343.08 0 634.114 -1343.06 0 
1168.19 -1343.05 0 1738.97 -1347.13 0 1743.12 -1343.03 0 
2527.63 -1343.01 0 -872.167 -1326.1 0 98.6812 -1326.08 0 
630.742 -1326.06 0 1152.91 -1326.05 0 1757.16 -1326.03 0 
2526.43 -1326.01 0 -883.435 -1309.1 0 110.926 -1310.12 0 
111.731 -1309.07 0 625.523 -1309.06 0 628.939 -1320.21 0 
1131.79 -1309.05 0 1146.95 -1320.46 0 1767.52 -1309.03 0 
2523.05 -1309.01 0 -888.101 -1302.06 0 -894.703 -1292.1 0 
124.78 -1292.07 0 616.594 -1292.06 0 1109.09 -1292.05 0 
1109.95 -1292.69 0 1775.47 -1292.03 0 2519.67 -1292.01 0 
-905.971 -1275.1 0 137.829 -1275.07 0 607.664 -1275.06 0 
1086.4 -1275.05 0 1775.97 -1290.86 0 1782.8 -1275.03 0 
2516.3 -1275.01 0 -917.24 -1258.1 0 147.93 -1261.91 0 
150.475 -1258.07 0 598.734 -1258.06 0 1063.7 -1258.05 0 
1072.95 -1264.98 0 1791.11 -1258.03 0 2515.99 -1273.48 0 
2512.92 -1258.01 0 -925.098 -1246.24 0 -928.508 -1241.1 0 
159.38 -1241.07 0 590.628 -1241.06 0 591.943 -1244.52 0 
1041.01 -1241.04 0 1803.72 -1241.02 0 2509.54 -1241.01 0 
-939.776 -1224.1 0 165.691 -1224.07 0 587.064 -1224.06 0 
1018.32 -1224.04 0 1035.96 -1237.26 0 1812.98 -1228.53 0 
1816.32 -1224.02 0 2506.16 -1224 0 -951.044 -1207.1 0 
169.255 -1207.07 0 583.5 -1207.06 0 996.942 -1207.04 0 
998.956 -1209.54 0 1828.92 -1207.02 0 2502.79 -1207 0 
-962.096 -1190.42 0 -962.312 -1190.1 0 171.69 -1190.07 0 
579.936 -1190.05 0 983.201 -1190.04 0 1841.52 -1190.02 0 
2499.41 -1190 0 -973.58 -1173.1 0 174.124 -1173.06 0 
576.373 -1173.05 0 969.393 -1173.04 0 1849.98 -1178.61 0 
1854.13 -1173.02 0 2496.14 -1173 0 -984.849 -1156.09 0 
176.558 -1156.06 0 572.809 -1156.05 0 956.864 -1156.04 0 
961.958 -1163.92 0 1866.73 -1156.02 0 2494.61 -1156 0 
-996.117 -1139.09 0 178.992 -1139.06 0 569.245 -1139.05 0 
946.563 -1139.04 0 1879.33 -1139.02 0 2494 -1139 0 
-999.094 -1134.59 0 -1007.37 -1122.09 0 181.426 -1122.06 0 
565.681 -1122.05 0 937.107 -1122.04 0 1886.98 -1128.69 0 
1891.08 -1122.01 0 2493.82 -1122 0 -1024.3 -1105.09 0 
183.861 -1105.06 0 562.117 -1105.05 0 928.434 -1105.04 0 
1900.51 -1105.01 0 2493.65 -1105 0 -1032.92 -1088.09 0 
184.94 -1097.52 0 186.295 -1088.06 0 558.553 -1088.05 0 
920.109 -1088.04 0 924.96 -1097.95 0 1908.1 -1088.01 0 
2493.48 -1088 0 -1035.98 -1071.09 0 188.919 -1071.06 0 
554.99 -1071.05 0 911.784 -1071.04 0 1915.05 -1071.01 0 
2493.3 -1071 0 -1036.09 -1070.3 0 -1038.67 -1054.09 0 
196.05 -1054.06 0 551.396 -1054.05 0 554.952 -1070.87 0 
899.971 -1054.04 0 1921.99 -1054.01 0 2493.13 -1053.99 0 
-1041.13 -1037.09 0 203.181 -1037.06 0 547.809 -1037.05 0 
886.103 -1037.04 0 887.963 -1039.32 0 1923.99 -1049.13 0 
1928.94 -1037.01 0 2492.96 -1036.99 0 -1043.37 -1020.09 0 
210.313 -1020.05 0 544.226 -1020.05 0 872.236 -1020.04 0 
1935.89 -1020.01 0 2492.78 -1019.99 0 -1045.42 -1003.09 0 
217.444 -1003.05 0 540.65 -1003.04 0 858.369 -1003.04 0 
1942.84 -1003.01 0 2492.61 -1002.99 0 -1047.3 -986.086 0 
221.948 -992.317 0 224.345 -986.052 0 537.079 -986.044 0 
844.501 -986.035 0 850.965 -993.959 0 1949.79 -986.005 0 
[...]
POINT_DATA 7128
SCALARS Pressure double
LOOKUP_TABLE default
3.0932710339 3.0932710339 3.0932710339 3.0932710339 3.0932710339 3.0932710339 3.0932710339 3.0932710339 3.0932710339 
3.0932710339 3.0932710339 3.0932710339 3.0932710339 3.0932710339 3.0932710339 3.0932710339 3.0932710339 3.0932710339 
3.0932710339 3.0932710339 3.0932710339 3.0932710339 3.0932710339 3.0932710339 3.0932710339 3.0932710339 3.0932710339 
3.0932710339 3.0932710339 3.0932710339 3.0932710339 3.0932710339 3.0932710339 3.0932710339 3.0932710339 3.0932710339 
3.0932710339 3.0932710339 3.0932710339 3.0932710339 3.0932710339 3.0932710339 3.0932710339 3.0932710339 3.0932710339 
3.0932710339 3.0932710339 3.0932710339 3.0932710339 3.0932710339 3.0932710339 3.0932710339 3.0932710339 3.0932710339 
3.0932710339 3.0932710339 3.0932710339 3.0932710339 3.0932710339 3.0932710339 3.0932710339 3.0932710339 3.0932710339 
3.0932710339 3.0932710339 3.0932710339 3.0932710339 3.0932710339 3.0932710339 3.0932710339 3.0932710339 3.0932710339 
3.0932710339 3.0932710339 3.0932710339 3.0932710339 3.0932710339 3.0932710339 3.0932710339 3.0932710339 3.0932710339 
3.0932710339 3.0932710339 3.0932710339 3.0932710339 3.0932710339 3.0932710339 3.0932710339 3.0932710339 3.0932710339 
3.0932710339 3.0932710339 3.0932710339 3.0932710339 3.0932710339 3.0932710339 3.0932710339 3.0932710339 3.0932710339 
3.0932710339 3.0932710339 3.0932710339 3.0932710339 3.0932710339 3.0932710339 3.0932710339 3.0932710339 3.0932710339 
3.0932710339 3.0932710339 3.0932710339 3.0932710339 3.0932710339 3.0932710339 3.0932710339 3.0932710339 3.0932710339 
3.0932710339 3.0932710339 3.0932710339 3.0932710339 3.0932710339 3.0932710339 3.0932710339 3.0932710339 3.0932710339 
3.0932710339 3.0932710339 3.0932710339 3.0932710339 3.0932710339 3.0932710339 3.0932710339 3.0932710339 3.0932710339 
3.0932710339 3.0932710339 3.0932710339 3.0932710339 3.0932710339 3.0932710339 3.0932710339 3.0932710339 3.0932710339 
3.0932710339 3.0932710339 3.0932710339 3.0932710339 3.0932710339 3.0932710339 3.0932710339 3.0932710339 3.0932710339 
3.0932710339 3.0932710339 3.0932710339 3.0932710339 3.0932710339 3.0932710339 3.0932710339 3.0932710339 3.0932710339 
3.0932710339 3.0932710339 3.0932710339 3.0932710339 3.0932710339 3.0932710339 3.0932710339 3.0932710339 3.0932710339 
3.0932710339 3.0932710339 3.0932710339 3.0932710339 3.0932710339 3.0932710339 3.0932710339 3.0932710339 3.0932710339 
3.0932710339 3.0932710339 3.0932710339 3.0932710339 3.0932710339 3.0932710339 3.0932710339 3.0932710339 3.0932710339 
3.0932710339 3.0932710339 3.0932710339 3.0932710339 3.0932710339 3.0932710339 3.0932710339 3.0932710339 3.0932710339 
3.0932710339 3.0932710339 3.0932710339 3.0932710339 3.0932710339 3.0932710339 3.0932710339 3.0932710339 3.0932710339 
3.0932710339 3.0932710339 3.0932710339 3.0932710339 3.0932710339 3.0932710339 3.0932710339 3.0932710339 3.0932710339 
3.0932710339 3.0932710339 3.0932710339 3.0932710339 3.0932710339 3.0932710339 3.0932710339 3.0932710339 3.0786768432 
3.0786768432 3.0786768432 3.0786768432 3.0786768432 3.0932710339 3.0932710339 3.0932710339 3.0786768432 3.0786768432 
3.0786768432 3.0932710339 3.0932710339 3.0786768432 3.0786768432 3.0786768432 3.0786768432 3.0786768432 3.0932710339 
3.0932710339 3.0786768432 3.0786768432 3.0786768432 3.0786768432 3.0786768432 3.0932710339 3.0932710339 3.0786768432 
3.0786768432 3.0786768432 3.0786768432 3.0932710339 3.0932710339 3.0786768432 3.0786768432 3.0786768432 3.0786768432 
3.0786768432 3.0932710339 3.0932710339 3.0786768432 3.0786768432 3.0786768432 3.0786768432 3.0932710339 3.0932710339 
3.0786768432 3.0786768432 3.0932710339 3.0932710339 3.0932710339 3.0786768432 3.0786768432 3.0786768432 3.0786768432 
3.0932710339 3.0932710339 3.0786768432 3.0786768432 3.0786768432 3.0932710339 3.0932710339 3.0932710339 3.0786768432 
3.0786768432 3.0932710339 3.0932710339 3.0786768432 3.0786768432 3.0786768432 3.0932710339 3.1078652246 3.1078652246 
3.1078652246 3.1078652246 3.1078652246 3.1078652246 3.1078652246 3.1078652246 3.1078652246 3.0932710339 3.0786768432 
3.0786768432 3.0786768432 3.0932710339 3.1078652246 3.1078652246 3.1078652246 3.0932710339 3.0786768432 3.0786768432 
3.0932710339 3.1078652246 3.1078652246 3.1078652246 3.1078652246 3.0932710339 3.0786768432 3.0786768432 3.0786768432 
3.0932710339 3.1078652246 3.1078652246 3.1078652246 3.0932710339 3.0786768432 3.0786768432 3.0786768432 3.0932710339 
3.1078652246 3.1078652246 3.1078652246 3.1078652246 3.0932710339 3.0786768432 3.0786768432 3.0932710339 3.1078652246 
3.1078652246 3.0932710339 3.0786768432 3.0786768432 3.0932710339 3.1078652246 3.1078652246 3.1078652246 3.1078652246 
3.0932710339 3.0786768432 3.0786768432 3.0786768432 3.0786768432 3.0932710339 3.1078652246 3.1078652246 3.1078652246 
3.0932710339 3.0786768432 3.0786768432 3.0932710339 3.1078652246 3.1078652246 3.0932710339 3.0786768432 3.0786768432 
3.0786768432 3.0932710339 3.0932710339 3.1078652246 3.1078652246 3.1078652246 3.0932710339 3.0786768432 3.0786768432 
3.0786768432 3.0932710339 3.1078652246 3.1078652246 3.1078652246 3.0932710339 3.0786768432 3.0786768432 3.0932710339 
3.1078652246 3.1078652246 3.1078652246 3.0932710339 3.0786768432 3.0786768432 3.0786768432 3.0932710339 3.1078652246 
3.1078652246 3.1078652246 3.0932710339 3.0932710339 3.0786768432 3.0786768432 3.0786768432 3.0932710339 3.0932710339 
3.1078652246 3.1078652246 3.0932710339 3.0786768432 3.0786768432 3.0932710339 3.1078652246 3.1078652246 3.1078652246 
3.1078652246 3.0932710339 3.0786768432 3.0786768432 3.0932710339 3.1078652246 3.1078652246 3.1078652246 3.0932710339 
3.0786768432 3.0786768432 3.0786768432 3.0932710339 3.1078652246 3.1078652246 3.0932710339 3.0786768432 3.0786768432 
3.0932710339 3.1078652246 3.1078652246 3.1078652246 3.0932710339 3.0786768432 3.0786768432 3.0932710339 3.1078652246 
3.1078652246 3.1078652246 3.0932710339 3.0786768432 3.0786768432 3.0932710339 3.1078652246 3.1078652246 3.0932710339 
3.0786768432 3.0786768432 3.0786768432 3.0932710339 3.1078652246 3.1078652246 3.1078652246 3.0932710339 3.0786768432 
3.0786768432 3.0932710339 3.1078652246 3.1078652246 3.0932710339 3.0786768432 3.0786768432 3.0786768432 3.0932710339 
3.1078652246 3.1078652246 3.1078652246 3.0932710339 3.0786768432 3.0786768432 3.0932710339 3.1078652246 3.1078652246 
3.0932710339 3.0786768432 3.0786768432 3.0786768432 3.0932710339 3.0932710339 3.1078652246 3.1078652246 3.0932710339 
3.0786768432 3.0786768432 3.0932710339 3.1078652246 3.1078652246 3.1078652246 3.1078652246 3.0932710339 3.0786768432 
3.0786768432 3.0932710339 3.1078652246 3.1078652246 3.0932710339 3.0786768432 3.0786768432 3.0932710339 3.1078652246 
3.1078652246 3.0932710339 3.0786768432 3.0786768432 3.0786768432 3.0932710339 3.1078652246 3.1078652246 3.1078652246 
3.0932710339 3.0786768432 3.0786768432 3.0932710339 3.1078652246 3.1078652246 3.0932710339 3.0786768432 3.0786768432 
3.0932710339 3.1078652246 3.1078652246 3.1078652246 3.0932710339 3.0786768432 3.0786768432 3.0932710339 3.1078652246 
3.1078652246 3.1078652246 3.0932710339 3.0786768432 3.0786768432 3.0932710339 3.0932710339 3.1078652246 3.1078652246 
3.0932710339 3.0786768432 3.0786768432 3.0932710339 3.1078652246 3.1078652246 3.0932710339 3.0786768432 3.0786768432 
3.0932710339 3.1078652246 3.1078652246 3.1078652246 3.0932710339 3.0786768432 3.0786768432 3.0932710339 3.1078652246 
3.1078652246 3.1078652246 3.0932710339 3.0932710339 3.0786768432 3.0786768432 3.0932710339 3.1078652246 3.1078652246 
3.0932710339 3.0786768432 3.0786768432 3.0932710339 3.1078652246 3.1224594153 3.1224594153 3.1224594153 3.1224594153 
3.1224594153 3.1078652246 3.0932710339 3.0786768432 3.0786768432 3.0932710339 3.1078652246 3.1078652246 3.1224594153 
3.1224594153 3.1224594153 3.1224594153 3.1224594153 3.1224594153 3.1224594153 3.1078652246 3.0932710339 3.0786768432 
3.0786768432 3.0932710339 3.0932710339 3.1078652246 3.1224594153 3.1224594153 3.1224594153 3.1078652246 3.0932710339 
3.0786768432 3.0786768432 3.0786768432 3.0932710339 3.1078652246 3.1224594153 3.1224594153 3.1224594153 3.1224594153 
3.1078652246 3.0932710339 3.0786768432 3.0786768432 3.0786768432 3.0786768432 3.0786768432 3.0640826525 3.0640826525 
3.0640826525 3.0786768432 3.0932710339 3.1078652246 3.1078652246 3.1224594153 3.1224594153 3.1224594153 3.1224594153 
3.1078652246 3.0932710339 3.0786768432 3.0786768432 3.0786768432 3.0786768432 3.0786768432 3.0786768432 3.0640826525 
3.0640826525 3.0640826525 3.0640826525 3.0640826525 3.0640826525 3.0640826525 3.0640826525 3.0786768432 3.0932710339 
3.1078652246 3.1224594153 3.1224594153 3.1224594153 3.1078652246 3.1078652246 3.0932710339 3.0786768432 3.0786768432 
3.0786768432 3.0786768432 3.0640826525 3.0640826525 3.0640826525 3.0786768432 3.0932710339 3.1078652246 3.1224594153 
3.1224594153 3.1224594153 3.1078652246 3.0932710339 3.0786768432 3.0786768432 3.0786768432 3.0786768432 3.0786768432 
3.0786768432 3.0640826525 3.0640826525 3.0640826525 3.0640826525 3.0786768432 3.0932710339 3.1078652246 3.1224594153 
3.1224594153 3.1224594153 3.1078652246 3.0932710339 3.0786768432 3.0786768432 3.0786768432 3.0786768432 3.0786768432 
3.0640826525 3.0640826525 3.0786768432 3.0932710339 3.1078652246 3.1078652246 3.1224594153 3.1224594153 3.1224594153 
3.1078652246 3.0932710339 3.0786768432 3.0786768432 3.0786768432 3.0786768432 3.0786768432 3.0640826525 3.0640826525 
3.0640826525 3.0786768432 3.0786768432 3.0932710339 3.1078652246 3.1224594153 3.1224594153 3.1078652246 3.0932710339 
3.0786768432 3.0786768432 3.0786768432 3.0786768432 3.0640826525 3.0640826525 3.0640826525 3.0786768432 3.0932710339 
3.1078652246 3.1224594153 3.1224594153 3.1224594153 3.1224594153 3.1078652246 3.0932710339 3.0786768432 3.0786768432 
3.0786768432 3.0786768432 3.0640826525 3.0640826525 3.0640826525 3.0786768432 3.0932710339 3.0932710339 3.1078652246 
3.1224594153 3.1224594153 3.1224594153 3.1078652246 3.0932710339 3.0786768432 3.0786768432 3.0786768432 3.0786768432 
3.0786768432 3.0640826525 3.0640826525 3.0640826525 3.0786768432 3.0932710339 3.1078652246 3.1078652246 3.1224594153 
3.1224594153 3.1078652246 3.1078652246 3.0932710339 3.0786768432 3.0786768432 3.0786768432 3.0786768432 3.0640826525 
3.0640826525 3.0786768432 3.0932710339 3.1078652246 3.1224594153 3.1224594153 3.1224594153 3.1078652246 3.0932710339 
3.0786768432 3.0786768432 3.0786768432 3.0640826525 3.0640826525 3.0640826525 3.0640826525 3.0786768432 3.0932710339 
3.1078652246 3.1224594153 3.1224594153 3.1224594153 3.1078652246 3.0932710339 3.0786768432 3.0786768432 3.0786768432 
3.0786768432 3.0640826525 3.0640826525 3.0786768432 3.0932710339 3.1078652246 3.1224594153 3.1224594153 3.1224594153 
3.1078652246 3.0932710339 3.0786768432 3.0786768432 3.0786768432 3.0640826525 3.0640826525 3.0786768432 3.0932710339 
3.1078652246 3.1078652246 3.1224594153 3.1224594153 3.1078652246 3.0932710339 3.0786768432 3.0786768432 3.0786768432 
3.0786768432 3.0640826525 3.0640826525 3.0786768432 3.0932710339 3.1078652246 3.1224594153 3.1224594153 3.1224594153 
3.1078652246 3.0932710339 3.0786768432 3.0786768432 3.0786768432 3.0786768432 3.0640826525 3.0640826525 3.0640826525 
3.0786768432 3.0932710339 3.0932710339 3.1078652246 3.1224594153 3.1224594153 3.1224594153 3.1078652246 3.0932710339 
3.0786768432 3.0786768432 3.0786768432 3.0640826525 3.0640826525 3.0640826525 3.0786768432 3.0932710339 3.1078652246 
3.1078652246 3.1224594153 3.1224594153 3.1078652246 3.0932710339 3.0786768432 3.0786768432 3.0786768432 3.0786768432 
3.0640826525 3.0640826525 3.0786768432 3.0932710339 3.1078652246 3.1224594153 3.1224594153 3.1224594153 3.1078652246 
3.0932710339 3.0786768432 3.0786768432 3.0786768432 3.0640826525 3.0640826525 3.0786768432 3.0932710339 3.1078652246 
3.1224594153 3.1224594153 3.1224594153 3.1078652246 3.0932710339 3.0786768432 3.0786768432 3.0786768432 3.0786768432 
3.0640826525 3.0640826525 3.0786768432 3.0932710339 3.1078652246 3.1224594153 3.1224594153 3.1224594153 3.1078652246 
3.0932710339 3.0786768432 3.0786768432 3.0786768432 3.0640826525 3.0494884618 3.0494884618 3.0494884618 3.0494884618 
3.0494884618 3.0640826525 3.0786768432 3.0786768432 3.0932710339 3.1078652246 3.1078652246 3.1224594153 3.137053606 
3.137053606 3.137053606 3.137053606 3.137053606 3.1224594153 3.1078652246 3.0932710339 3.0786768432 3.0786768432 
3.0786768432 3.0786768432 3.0640826525 3.0494884618 3.0494884618 3.0494884618 3.0640826525 3.0786768432 3.0932710339 
3.1078652246 3.1224594153 3.137053606 3.137053606 3.137053606 3.137053606 3.1224594153 3.1078652246 3.0932710339 
3.0786768432 3.0786768432 3.0786768432 3.0640826525 3.0640826525 3.0494884618 3.0494884618 3.0494884618 3.0494884618 
3.0640826525 3.0786768432 3.0932710339 3.0932710339 3.1078652246 3.1224594153 3.1224594153 3.137053606 3.137053606 
3.137053606 3.1224594153 3.1078652246 3.0932710339 3.0786768432 3.0786768432 3.0786768432 3.0640826525 3.0494884618 
3.0494884618 3.0494884618 3.0640826525 3.0786768432 3.0932710339 3.1078652246 3.1078652246 3.1224594153 3.137053606 
3.137053606 3.137053606 3.1224594153 3.1078652246 3.1078652246 3.0932710339 3.0932710339 3.0786768432 3.0786768432 
3.0786768432 3.0786768432 3.0786768432 3.0640826525 3.0494884618 3.0494884618 3.0494884618 3.0640826525 3.0786768432 
3.0932710339 3.1078652246 3.1224594153 3.137053606 3.137053606 3.137053606 3.1224594153 3.1078652246 3.0932710339 
3.0786768432 3.0786768432 3.0786768432 3.0640826525 3.0494884618 3.0494884618 3.0640826525 3.0786768432 3.0932710339 
3.1078652246 3.1224594153 3.1224594153 3.137053606 3.137053606 3.137053606 3.137053606 3.1224594153 3.1078652246 
3.0932710339 3.0786768432 3.0786768432 3.0786768432 3.0640826525 3.0494884618 3.0494884618 3.0494884618 3.0640826525 
3.0786768432 3.0932710339 3.0932710339 3.1078652246 3.1224594153 3.137053606 3.137053606 3.1224594153 3.1078652246 
3.0932710339 3.0786768432 3.0786768432 3.0786768432 3.0786768432 3.0640826525 3.0494884618 3.0494884618 3.0494884618 
3.0640826525 3.0786768432 3.0932710339 3.1078652246 3.1078652246 3.1224594153 3.137053606 3.137053606 3.137053606 
3.1224594153 3.1078652246 3.0932710339 3.0786768432 3.0786768432 3.0786768432 3.0640826525 3.0494884618 3.0494884618 
3.0640826525 3.0786768432 3.0932710339 3.1078652246 3.1224594153 3.137053606 3.137053606 3.1224594153 3.1224594153 
3.1078652246 3.0932710339 3.0786768432 3.0786768432 3.0786768432 3.0786768432 3.0786768432 3.0640826525 3.0494884618 
3.0494884618 3.0494884618 3.0640826525 3.0786768432 3.0932710339 3.1078652246 3.1224594153 3.1224594153 3.137053606 
3.137053606 3.137053606 3.1224594153 3.1078652246 3.0932710339 3.0786768432 3.0786768432 3.0786768432 3.0786768432 
3.0640826525 3.0640826525 3.0494884618 3.0348942711 3.0348942711 3.0348942711 3.0348942711 3.0494884618 3.0640826525 
3.0786768432 3.0932710339 3.1078652246 3.1224594153 3.137053606 3.137053606 3.1224594153 3.1078652246 3.1078652246 
3.0932710339 3.0786768432 3.0786768432 3.0786768432 3.0786768432 3.0640826525 3.0494884618 3.0348942711 3.0348942711 
3.0348942711 3.0348942711 3.0494884618 3.0494884618 3.0640826525 3.0640826525 3.0786768432 3.0932710339 3.1078652246 
3.1078652246 3.1224594153 3.137053606 3.137053606 3.137053606 3.1224594153 3.1078652246 3.0932710339 3.0786768432 
3.0640826525 3.0640826525 3.0640826525 3.0640826525 3.0640826525 3.0640826525 3.0786768432 3.0786768432 3.0786768432 
3.0640826525 3.0494884618 3.0348942711 3.0348942711 3.0348942711 3.0494884618 3.0640826525 3.0786768432 3.0786768432 
3.0932710339 3.0932710339 3.1078652246 3.1224594153 3.137053606 3.137053606 3.137053606 3.1224594153 3.1224594153 
3.1078652246 3.0932710339 3.0786768432 3.0640826525 3.0640826525 3.0640826525 3.0786768432 3.0786768432 3.0786768432 
3.0786768432 3.0786768432 3.0640826525 3.0494884618 3.0348942711 3.0348942711 3.0348942711 3.0494884618 3.0640826525 
3.0786768432 3.0932710339 3.1078652246 3.1224594153 3.137053606 3.137053606 3.1224594153 3.1078652246 3.0932710339 
3.0786768432 3.0640826525 3.0640826525 3.0640826525 3.0786768432 3.0786768432 3.0786768432 3.0786768432 3.0640826525 
3.0494884618 3.0348942711 3.0348942711 3.0494884618 3.0640826525 3.0786768432 3.0932710339 3.1078652246 3.1224594153 
3.1224594153 3.137053606 3.137053606 3.1224594153 3.1078652246 3.0932710339 3.0786768432 3.0786768432 3.0640826525 
3.0640826525 3.0640826525 3.0786768432 3.0786768432 3.0786768432 3.0786768432 3.0640826525 3.0494884618 3.0494884618 
3.0348942711 3.0348942711 3.0348942711 3.0348942711 3.0494884618 3.0640826525 3.0640826525 3.0786768432 3.0932710339 
3.1078652246 3.1224594153 3.137053606 3.137053606 3.137053606 3.1224594153 3.1078652246 3.0932710339 3.0786768432 
3.0640826525 3.0640826525 3.0640826525 3.0786768432 3.0786768432 3.0786768432 3.0640826525 3.0494884618 3.0348942711 
3.0203000804 3.0203000804 3.0203000804 3.0203000804 3.0348942711 3.0494884618 3.0640826525 3.0786768432 3.0932710339 
3.1078652246 3.1224594153 3.1224594153 2.9619233175 2.9619233175 2.9765175082 2.9765175082 2.991111699 2.991111699 
3.0057058897 3.0057058897 3.0203000804 3.0203000804 3.0348942711 3.0348942711 3.0494884618 3.0494884618 3.0640826525 
3.0640826525 3.0786768432 3.0786768432 3.0932710339 3.0932710339 3.1078652246 3.1078652246 3.1224594153 3.1224594153 
2.9619233175 2.9765175082 2.991111699 3.0057058897 3.0203000804 3.0348942711 3.0494884618 3.0640826525 3.0786768432 
3.0932710339 3.1078652246 3.1224594153 2.9619233175 2.9765175082 2.991111699 3.0057058897 3.0203000804 3.0348942711 
3.0494884618 3.0640826525 3.0786768432 3.0932710339 3.1078652246 3.1224594153 3.137053606 2.9619233175 2.9765175082 
2.991111699 3.0057058897 3.0203000804 3.0348942711 3.0494884618 3.0640826525 3.0786768432 3.0932710339 3.1078652246 
3.1224594153 3.137053606 2.9619233175 2.9765175082 2.991111699 3.0057058897 3.0203000804 3.0348942711 3.0494884618 
3.0640826525 3.0786768432 3.0932710339 3.1078652246 3.1224594153 3.137053606 2.9619233175 2.9765175082 2.991111699 
3.0057058897 3.0203000804 3.0348942711 3.0494884618 3.0640826525 3.0786768432 3.0932710339 3.1078652246 3.1224594153 
3.137053606 2.9619233175 2.9765175082 2.991111699 3.0057058897 3.0203000804 3.0348942711 3.0494884618 3.0640826525 
3.0786768432 3.0932710339 3.1078652246 3.1224594153 3.137053606 2.9619233175 2.9765175082 2.991111699 3.0057058897 
3.0203000804 3.0348942711 3.0494884618 3.0640826525 3.0786768432 3.0932710339 3.1078652246 3.1224594153 3.137053606 
2.9619233175 2.9765175082 2.991111699 3.0057058897 3.0203000804 3.0348942711 3.0494884618 3.0640826525 3.0786768432 
3.0932710339 3.1078652246 3.1224594153 3.137053606 2.9619233175 2.9765175082 2.991111699 3.0057058897 3.0203000804 
3.0348942711 3.0494884618 3.0640826525 3.0786768432 3.0932710339 3.1078652246 3.1224594153 3.137053606 3.137053606 
3.1224594153 3.1078652246 3.0932710339 3.0786768432 3.0640826525 3.0640826525 3.0786768432 3.0786768432 3.0640826525 
3.0494884618 3.0348942711 3.0203000804 3.0203000804 3.0203000804 3.0203000804 3.0348942711 3.0494884618 3.0640826525 
3.0786768432 3.0932710339 3.1078652246 2.9619233175 2.9619233175 2.9765175082 2.9765175082 2.991111699 2.991111699 
3.0057058897 3.0057058897 3.0203000804 3.0203000804 3.0348942711 3.0348942711 3.0494884618 3.0494884618 3.0640826525 
3.0640826525 3.0786768432 3.0786768432 3.0932710339 3.0932710339 3.1078652246 2.9619233175 2.9765175082 2.991111699 
3.0057058897 3.0203000804 3.0348942711 3.0494884618 3.0640826525 3.0786768432 3.0932710339 3.1078652246 2.9619233175 
2.9765175082 2.991111699 3.0057058897 3.0203000804 3.0348942711 3.0494884618 3.0640826525 3.0786768432 3.0932710339 
3.1078652246 2.9619233175 2.9765175082 2.991111699 3.0057058897 3.0203000804 3.0348942711 3.0494884618 3.0640826525 
3.0786768432 3.0932710339 3.1078652246 2.9619233175 2.9765175082 2.991111699 3.0057058897 3.0203000804 3.0348942711 
3.0494884618 3.0640826525 3.0786768432 3.0932710339 3.1078652246 3.1224594153 2.9619233175 2.9765175082 2.991111699 