# vtk DataFile Version 4.2
vtk output
ASCII
DATASET UNSTRUCTURED_GRID
POINTS 1740 double
2144.07 -94.44003 0 2911 0 0 16.54298 -37.82236 0 
5.09149 -21.30132 0 1.27433 -10.75385 0 0 0 0 
2.54575 15.14293 0 6.36291 23.76126 0 14.00014 34.89063 0 
30.50239 50.70793 0 33.39435 -52.93479 0 2050.91 -103.7862 0 
60.1465 -69.72165 0 88.83633 -83.2817 0 118.7656 -94.71113 0 
153.4168 -105.7022 0 199.5806 -117.771 0 261.4466 -130.7139 0 
345.846 -144.1892 0 460.3522 -157.0592 0 608.4185 -167.1903 0 
783.2313 -172.4016 0 941.0559 -172.4533 0 1063.409 -170.1096 0 
1164.153 -166.8746 0 1263.449 -162.682 0 1375.468 -156.8941 0 
1513.293 -148.414 0 1665.281 -137.5317 0 1791.864 -127.3721 0 
2195.451 -89.09491 0 2273.924 -80.67077 0 2383.731 -68.3513 0 
2517.64 -52.47337 0 2649.227 -35.9232 0 2740.773 -23.82991 0 
2804.387 -15.13419 0 2848.802 -8.916218 0 2881.944 -4.196067 0 
56.61447 67.79801 0 84.09687 81.25172 0 112.4783 92.48395 0 
142.1748 102.3504 0 174.8563 111.6168 0 213.124 120.8806 0 
260.3759 130.5151 0 324.6539 141.1779 0 418.1422 152.9178 0 
535.6656 162.9871 0 690.9154 170.4255 0 902.6513 172.7852 0 
1100.32 169.0517 0 1270.99 162.3262 0 1462.794 151.6837 0 
1631.287 140.0952 0 1747.993 131 0 1922.788 115.9027 0 
2069.56 101.951 0 2128.804 96.0021 0 2297.147 78.11721 0 
2414.379 64.80104 0 2554.023 47.99319 0 2673.693 32.73885 0 
2757.97 21.50315 0 2814.297 13.7575 0 2852.02 8.460961 0 
2882.272 4.148909 0 1791.052 127.4402 0 1366.894 157.3738 0 
1444.38 -152.8302 0 1547.039 146.1296 0 1589.287 -143.1614 0 
1878.731 119.8675 0 1997.072 108.9828 0 1185.654 166.0472 0 
1882.536 -119.5292 0 1971.323 -111.4145 0 1684.777 136.0292 0 
2099.317 -98.9855 0 2234.809 84.9091 0 2181.695 90.53914 0 
1728.573 -132.5703 0 1718.815 133.3509 0 1834.825 123.7132 0 
1960.305 112.4444 0 2033.69 105.4648 0 2099.184 98.99892 0 
2214.291 -88.992787839 396.8421 2955.512 0.9886656947 396.8421 158.0786 -34.16022969 396.8421 
147.0109 -18.293299449 396.8421 143.3217 -8.161172689 396.8421 142.09 2.1707083671 396.8421 
144.5505 16.721592915 396.8421 148.2398 25.003919214 396.8421 155.621 35.700266128 396.8421 
171.5701 50.903291373 396.8421 174.3652 -48.669793627 396.8421 2124.254 -97.879709122 396.8421 
200.2206 -64.781009439 396.8421 227.9488 -77.789923024 396.8421 256.8748 -88.750654519 396.8421 
290.3647 -99.287020262 396.8421 334.981 -110.85143053 396.8421 394.7733 -123.24683618 396.8421 
476.3434 -136.14361652 396.8421 587.0114 -148.45149138 396.8421 730.1145 -158.13182896 396.8421 
899.0676 -163.10810616 396.8421 1051.602 -163.16083528 396.8421 1169.853 -160.93110705 396.8421 
1267.221 -157.85343142 396.8421 1363.188 -153.86565312 396.8421 1471.452 -148.36167411 396.8421 
1604.657 -140.29973948 396.8421 1751.55 -129.95597454 396.8421 1873.891 -120.29980137 396.8421 
2263.949 -83.909313232 396.8421 2339.792 -75.895794739 396.8421 2445.918 -64.172553371 396.8421 
2575.338 -49.054541596 396.8421 2702.515 -33.285012077 396.8421 2790.992 -21.754124778 396.8421 
2852.473 -13.458396141 396.8421 2895.4 -7.5241485665 396.8421 2927.431 -3.0180612192 396.8421 
196.807 67.330475457 396.8421 223.3682 80.262075849 396.8421 250.7983 91.057706839 396.8421 
279.4994 100.53956945 396.8421 311.0855 109.44352534 396.8421 348.0705 118.34315709 396.8421 
393.7383 127.59637635 396.8421 455.8617 137.83261658 396.8421 546.2162 149.09374073 396.8421 
659.8003 158.7373159 396.8421 809.846 165.83444412 396.8421 1014.485 168.02355707 396.8421 
1205.528 164.35754698 396.8421 1370.477 157.82500324 396.8421 1555.851 147.51811964 396.8421 
1718.696 136.31005204 396.8421 1831.49 127.51910312 396.8421 2000.426 112.9326451 396.8421 
2142.278 99.456698878 396.8421 2199.537 93.711358728 396.8421 2362.236 76.439488738 396.8421 
2475.539 63.579997994 396.8421 2610.501 47.347950937 396.8421 2726.16 32.61494291 396.8421 
2807.613 21.762183878 396.8421 2862.05 14.279884911 396.8421 2898.509 9.1630891712 396.8421 
2927.749 4.9971611576 396.8421 1873.106 124.07923875 396.8421 1463.165 153.02621882 396.8421 
1538.054 -144.49797481 396.8421 1637.272 142.14505483 396.8421 1678.104 -135.30690016 396.8421 
1957.846 116.76278914 396.8421 2072.22 106.24847218 396.8421 1288 161.43571849 396.8421 
1961.524 -112.84538829 396.8421 2047.334 -105.13186998 396.8421 1770.393 132.37968681 396.8421 
2171.038 -93.315219006 396.8421 2301.989 82.998461427 396.8421 2250.655 88.43552665 396.8421 
1812.721 -125.24037193 396.8421 1803.29 129.79098672 396.8421 1915.411 120.47811279 396.8421 
2036.686 109.59196673 396.8421 2107.61 102.85047419 396.8421 2170.909 96.605626959 396.8421 
2284.511 -80.494473333 793.6842 3000.027 4.9117947665 793.6842 299.6143 -28.304592155 793.6842 
288.9304 -13.069696839 793.6842 285.3691 -3.3355990266 793.6842 284.1801 6.5944894034 793.6842 
286.5551 20.586073064 793.6842 290.1167 28.553492199 793.6842 297.2417 38.846871128 793.6842 
312.6379 53.484516872 793.6842 315.336 -42.225848895 793.6842 2197.597 -88.938218221 793.6842 
340.2947 -57.671012907 793.6842 367.0612 -70.131067838 793.6842 394.9839 -80.620775495 793.6842 
427.3123 -90.696032403 793.6842 470.3812 -101.74363957 793.6842 528.0998 -113.57019708 793.6842 
606.8411 -125.85373383 793.6842 713.6708 -137.54591744 793.6842 851.8104 -146.69917153 793.6842 
1014.904 -151.34495284 793.6842 1162.147 -151.31088315 793.6842 1276.298 -149.12738729 793.6842 
1370.288 -146.15234685 793.6842 1462.927 -142.31692584 793.6842 1567.436 -137.04046853 793.6842 
1696.021 -129.33159205 793.6842 1837.82 -119.46207325 793.6842 1955.917 -110.2629079 793.6842 
2332.447 -75.66614155 793.6842 2405.659 -68.056705465 793.6842 2508.105 -56.927911041 793.6842 
2633.037 -42.580103382 793.6842 2755.801 -27.615757122 793.6842 2841.209 -16.673499424 793.6842 
2900.561 -8.800688462 793.6842 2941.997 -3.1685055325 793.6842 2972.917 1.1085074887 793.6842 
336.9995 69.310633453 793.6842 362.6396 81.776461007 793.6842 389.1182 92.188386508 793.6842 
416.8239 101.3373168 793.6842 447.3145 109.93231385 793.6842 483.0167 118.52689114 793.6842 
527.1009 127.46751133 793.6842 587.0697 137.36441637 793.6842 674.2905 148.26283778 793.6842 
783.9349 157.61059556 793.6842 928.7766 164.51299635 793.6842 1126.317 166.68950001 793.6842 
1310.735 163.19720372 793.6842 1469.963 156.91875163 793.6842 1648.908 146.98368157 793.6842 
1806.105 136.16106343 793.6842 1914.987 127.66320168 793.6842 2078.064 113.54964885 793.6842 
2214.996 100.49846841 793.6842 2270.269 94.9312134 793.6842 2427.326 78.185259744 793.6842 
2536.699 65.709240861 793.6842 2666.98 49.952911971 793.6842 2778.628 35.644691751 793.6842 
2857.255 25.101103095 793.6842 2909.806 17.830306734 793.6842 2945.001 12.857434408 793.6842 
2973.224 8.8082782082 793.6842 1955.16 124.33618088 793.6842 1559.437 152.29587239 793.6842 
1631.729 -133.34365669 793.6842 1727.505 141.79727425 793.6842 1766.921 -124.56529685 793.6842 
2036.96 117.25697582 793.6842 2147.368 107.07741563 793.6842 1390.347 160.39206755 793.6842 
2040.511 -103.16820195 793.6842 2123.346 -95.83196841 793.6842 1856.009 132.36260298 793.6842 
2242.759 -84.600850604 793.6842 2369.167 84.546070662 793.6842 2319.614 89.81743854 793.6842 
1896.869 -114.96827816 793.6842 1887.765 129.8600205 793.6842 1995.998 120.85233378 793.6842 
2113.066 110.31528436 793.6842 2181.531 103.78622343 793.6842 2242.634 97.735974709 793.6842 
2354.732 -70.006873988 1190.526 3044.539 10.980589291 1190.526 441.15 -21.094825206 1190.526 
430.8497 -6.4728992092 1190.526 427.4164 2.8770157671 1190.526 426.2701 12.420765417 1190.526 
428.5601 25.877087271 1190.526 431.9934 33.544583628 1190.526 438.8627 43.455917621 1190.526 
453.7057 57.561230317 1190.526 456.3069 -34.442419739 1190.526 2270.94 -78.039159098 1190.526 
480.3688 -49.234362449 1190.526 506.1737 -61.153121361 1190.526 533.0934 -71.176018742 1190.526 
564.26 -80.792063021 1190.526 605.7815 -91.322012147 1190.526 661.4265 -102.57429798 1190.526 
737.3385 -114.23201936 1190.526 840.33 -125.28410112 1190.526 973.5064 -133.86998648 1190.526 
1130.74 -138.1284571 1190.526 1272.693 -137.94957159 1190.526 1382.742 -135.76436318 1190.526 
1473.356 -132.85115573 1190.526 1562.666 -129.12692717 1190.526 1663.42 -124.03078688 1190.526 
1787.385 -116.61711319 1190.526 1924.09 -107.15879425 1190.526 2037.944 -98.365737024 1190.526 
2400.946 -65.417037337 1190.526 2471.527 -58.187688082 1190.526 2570.292 -47.622668519 1190.526 
2690.735 -34.012954412 1190.526 2809.091 -19.828703461 1190.526 2891.43 -9.4617419539 1190.526 
2948.647 -2.0047859309 1190.526 2988.597 3.3291080432 1190.526 3018.403 7.3792666031 1190.526 
477.1918 72.827059534 1190.526 501.9109 84.863514392 1190.526 527.4382 94.925562669 1190.526 
554.1485 103.77421025 1190.526 583.5435 112.09385088 1190.526 617.963 120.4205841 1190.526 
660.4633 129.09167007 1190.526 718.2775 138.70386326 1190.526 802.3645 149.31244185 1190.526 
908.0698 158.44637136 1190.526 1047.707 165.24814913 1190.526 1238.151 167.51733746 1190.526 
1415.942 164.27492684 1190.526 1569.449 158.3002302 1190.526 1741.965 148.77633837 1190.526 
1893.514 138.35987738 1190.526 1998.484 130.16223116 1190.526 2155.702 116.5216824 1190.526 
2287.714 103.8859095 1190.526 2341.001 98.490633333 1190.526 2492.415 82.246164659 1190.526 
2597.858 70.130684167 1190.526 2723.46 54.8165827 1190.526 2831.095 40.899451053 1190.526 
2906.899 30.638679984 1190.526 2957.56 23.560648119 1190.526 2991.49 18.718633779 1190.526 
3018.699 14.775491834 1190.526 2037.214 126.94933683 1190.526 1655.708 153.87513218 1190.526 
1725.403 -120.47185153 1190.526 1817.738 143.78851065 1190.526 1855.738 -112.04565606 1190.526 
2116.075 120.1074336 1190.526 2222.516 110.25772051 1190.526 1492.694 161.61315954 1190.526 
2119.498 -91.595446559 1190.526 2199.357 -84.603107901 1190.526 1941.625 134.69720828 1190.526 
2314.479 -73.912193013 1190.526 2436.346 88.419084385 1190.526 2388.573 93.532412879 1190.526 
1981.017 -102.86098907 1190.526 1972.24 132.28264487 1190.526 2076.584 123.58309188 1190.526 
[...]
POINT_DATA 1740
FIELD FieldData 1
Pressure 1 1740 double
3.1055433466 3.0184382655 3.0085064819 2.9854733042 2.9799047194 2.9642288089 2.9748263537 2.9915233431 3.0237783859 
3.0388337898 3.0094036736 3.1093936267 3.0312991154 3.0456316999 3.0628917962 3.061894897 3.0795598234 3.0847535381 
3.1043647558 3.1108413943 3.1285449449 3.1367987283 3.1402351378 3.1442252126 3.1408599466 3.1370898575 3.1335936975 
3.1306232823 3.1249414877 3.1198802365 3.1028359065 3.0994015646 3.0936132683 3.0855082617 3.0745012348 3.064329866 
3.0543877884 3.0456628041 3.0371682358 3.073911238 3.0856558816 3.0976826519 3.1111753945 3.1183342428 3.1235809807 
3.1311508713 3.1386837344 3.1538428778 3.1659454789 3.1841092284 3.1952732523 3.2008741505 3.2071241311 3.2134381223 
3.2170138089 3.2193668387 3.2200141303 3.1269535474 3.0950020134 3.0862094998 3.0801494401 3.0714441898 3.0620994126 
3.0516970081 3.0415165009 3.0333905735 3.0320214374 3.2193298298 3.21101355 3.133063883 3.2141639786 3.1280972608 
3.2197346105 3.2208412645 3.2069036877 3.1160484008 3.1125867151 3.2172912943 3.107501932 3.0899187493 3.0920467617 
3.1223122052 3.2190891268 3.2199685857 3.2204182681 3.2334457522 3.09635777 3.1027386509 3.0233418255 3.0281760875 
3.0014041926 3.0076211961 2.9878241508 2.9952458916 3.0067274193 3.0360282736 3.0555674848 3.0329455177 3.106997825 
3.0533775357 3.0656810914 3.0794486301 3.0838457238 3.0984433447 3.1080278114 3.1205614835 3.1263707075 3.1351385926 
3.1404467721 3.1428201399 3.1432065544 3.1403038934 3.1358411436 3.1314817852 3.1270313595 3.1218906679 3.1173774589 
3.1003137845 3.0963058432 3.0905818871 3.0827492355 3.0717438565 3.0614777317 3.0516706893 3.0439068778 3.0282225486 
3.0882766278 3.1100246782 3.1226509131 3.1308578168 3.1406868283 3.1450626658 3.1504092555 3.1618954631 3.172960982 
3.1805551899 3.191407879 3.1994195097 3.2042759484 3.2105654114 3.2139942626 3.2166917615 3.2182071592 3.2207577431 
3.0902396415 3.0958373959 3.0890060346 3.083072901 3.0748708107 3.0646605795 3.0545674605 3.0450513565 3.0379843431 
3.0390126663 3.2189046402 3.2126807733 3.1302734415 3.2158139596 3.1243519263 3.2201071572 3.2157548598 3.2084567152 
3.1133734113 3.1098801109 3.2173192761 3.1051431174 3.0921319429 3.0943324173 3.1197654568 3.2179401629 3.219205005 
3.2220386722 3.1511417213 3.0939894971 3.1009016893 3.0235365248 3.0276942221 3.0003360106 3.003577512 2.9862198861 
2.997466175 3.0113815317 3.0402624689 3.0622530135 3.0404804326 3.1050491705 3.0556437367 3.0745674454 3.0929355301 
3.0998063817 3.1117993917 3.1192853481 3.1328435277 3.1389592257 3.1449590195 3.1473759202 3.1471866803 3.1453125531 
3.1406776572 3.1350928433 3.1307716716 3.1252512507 3.1201583636 3.1156241323 3.0985226517 3.0947426864 3.0887126875 
3.0811411483 3.0697821719 3.0594587042 3.049996149 3.0428534978 3.0277347548 3.0966784402 3.1183956766 3.1374467214 
3.1466764824 3.1536909939 3.1641048596 3.1744815028 3.1787223245 3.1879554305 3.1969912897 3.2036553292 3.209413023 
3.2110091336 3.2166982169 3.2195937115 3.2197140884 3.2206123066 3.2235337189 3.09292355 3.0918146733 3.0884963331 
3.0834054557 3.0757593041 3.0656117388 3.056014171 3.0466525094 3.0395639954 3.0414616043 3.2215032867 3.2186121634 
3.1284044515 3.2195203896 3.1225679662 3.2221292166 3.1245628018 3.2140800371 3.1116311598 3.1080043672 3.2198767342 
3.1033476202 3.0911919138 3.0924332657 3.1180232626 3.2201461825 3.2220901648 3.2220156265 3.090080427 3.092475677 
3.0996707646 3.0236779991 3.0276901607 2.9999193878 3.0031436388 2.9841290703 2.9940850456 3.0086510625 3.0410417394 
3.0633090197 3.0397784619 3.1038292199 3.0593254438 3.0768031402 3.0956212432 3.1045532815 3.1163235765 3.1250035637 
3.1375646403 3.1447681695 3.1502706447 3.1515652994 3.150119267 3.1468992409 3.1413474183 3.1357223555 3.1305618955 
3.1247302693 3.1191656073 3.1141540732 3.0972748162 3.0936079162 3.0878567331 3.0803194165 3.0690830709 3.0588494586 
3.0496841028 3.0426679525 3.0277014781 3.101118967 3.1246812139 3.1399975838 3.152112997 3.160983974 3.1712423033 
3.1841268569 3.1938480058 3.2023733854 3.2106727641 3.2162566216 3.220979413 3.2211270028 3.2257770158 3.2270334328 
3.2265153671 3.226752661 3.2280068035 3.0904224977 3.0912197732 3.0874854461 3.0825367745 3.0748430451 3.065160544 
3.0559429592 3.046801916 3.0395819859 3.0417784259 3.2270480545 3.2268656526 3.127936429 3.2269073476 3.1217720904 
3.227182114 3.0842099079 3.2235029499 3.110367709 3.1067841102 3.2263254055 3.1019396529 3.0899981578 3.091153031 
3.1168299109 3.2262900877 3.2273105424 3.1070677018 3.0889245339 3.0909705446 3.0986551297 3.023741469 3.0299438324 
3.0006876664 3.0083664432 2.9885398657 2.9965912135 3.010159503 3.0432869931 3.0649557316 3.0404215821 3.1027817132 
3.0620100805 3.0791115036 3.0962119547 3.1059337332 3.1182706987 3.1283693788 3.1401309065 3.1480240666 3.153492448 
3.1539408321 3.1512000367 3.1471042863 3.1407844902 3.1349157947 3.1294273223 3.1238791126 3.1181438693 3.1130351237 
3.096445935 3.0927239308 3.0871184103 3.0796276947 3.0686609634 3.0585825388 3.0496563887 3.042572584 3.0283874698 
3.1027789235 3.126918187 3.1417496113 3.1554378918 3.1639640343 3.1758589726 3.1882031786 3.1936434642 3.2057048904 
3.2176452247 3.2259109249 3.2298805877 3.2309456223 3.2348303301 3.2353724851 3.2339073083 3.2338728187 3.1076551495 
3.088524531 3.0881448079 3.0852486375 3.0806629098 3.073326348 3.0640341477 3.0550904268 3.0463259907 3.0391127464 
3.0419887957 3.2339522579 3.2353691346 3.1270960976 3.2347569414 3.1209469287 3.2330312741 3.0867053474 3.2330669867 
3.109361169 3.1058024299 3.233653275 3.1008030334 3.0872876343 3.088294991 3.1156859541 3.2335989237 3.2335490532 
3.0859455112 3.0881588261 3.0883177834 3.0978401345 3.0238587075 3.0312956788 3.0025236662 3.0106643932 2.9894546237 
2.998146773 3.0117372348 3.0441684478 3.066980683 3.0418900991 3.1017896277 3.0637374932 3.0811472917 3.0975716524 
3.1076254964 3.1200270714 3.1307786512 3.1425055189 3.1504953778 3.156364307 3.1559136449 3.1520913937 3.1469340597 
3.1400567518 3.1340293665 3.1284138027 3.122932029 3.1171281185 3.1120336824 3.0956260099 3.0918973337 3.0864437847 
3.0789485578 3.0681591786 3.0582137146 3.0494935636 3.0423245504 3.0291180742 3.1043880033 3.1290432599 3.1437588313 
3.1576692472 3.1666838198 3.1789675956 3.1923897429 3.1995208288 3.2115384971 3.2229977198 3.233121493 3.2375355894 
3.2394993862 3.2437785722 3.2443272081 3.2423677199 3.2418060037 3.0839151655 3.0888951461 3.0877731713 3.084744052 
3.0805081957 3.0735012422 3.0641525599 3.0552386471 3.0466648821 3.0394425102 3.042335659 3.2415600479 3.244525878 
3.1261554881 3.2435697794 3.1199405729 3.2444726684 3.087149281 3.2419144285 3.1084131918 3.1048296755 3.2417686508 
3.0999436919 3.0865616958 3.0875433109 3.1145955032 3.2415101371 3.2428922267 3.0897747367 3.0883609479 3.0886210963 
3.0971385964 3.0242121924 3.0317704009 3.0029198244 3.0109280181 2.9889502046 2.9980293691 3.0117135768 3.0444620298 
3.067365599 3.0427987135 3.101053275 3.0647222965 3.0824981501 3.0987927159 3.1090937322 3.1215643979 3.1327081219 
3.1442969425 3.1523917255 3.1586453155 3.1572201693 3.1525142701 3.1465376918 3.1394262478 3.1333991523 3.1276985964 
3.1221696425 3.1164279191 3.1112312257 3.0949196267 3.0911788124 3.0858730215 3.0783683049 3.0678211537 3.057946011 
3.0493884626 3.0421190449 3.0298745668 3.1047473958 3.1298284914 3.1447446944 3.1588541319 3.1680050436 3.1805442648 
3.194045328 3.2019284205 3.2144092413 3.2272455198 3.2382301462 3.2445713771 3.2472930714 3.2529704128 3.2538354953 
3.2518484031 3.250820934 3.0874444709 3.0888509125 3.0878493601 3.0856589921 3.0812016198 3.0741586753 3.0649063306 
3.0561368756 3.0475713845 3.0403203509 3.0432007641 3.2503534258 3.2532355295 3.1254227133 3.2532566805 3.1192147445 
3.2039510752 3.0894964018 3.2500361756 3.107635744 3.1039990386 3.2510630602 3.0991329315 3.0873988367 3.0882365999 
3.1137940549 3.2505243311 3.2541734825 3.0897697938 3.088483615 3.0889074657 3.0965553818 3.0244907895 3.0322675372 
3.0032721084 3.0109931518 2.9889970897 2.9980741839 3.0115291707 3.0447137042 3.0675385185 3.0434715632 3.100418728 
3.0654677618 3.0833529618 3.0995646794 3.1100804018 3.1226682908 3.134136071 3.1455938673 3.1536751761 3.160216303 
3.1580624591 3.1525933074 3.1460688625 3.1388954107 3.13289334 3.1271408468 3.1216021739 3.1157972948 3.1106179643 
3.0943407238 3.0906125185 3.0854349099 3.0779377247 3.0676024728 3.0577956238 3.0493492385 3.0419691012 3.0304907592 
3.1047947721 3.1300338681 3.1452308852 3.1593894426 3.1687094113 3.1812893514 3.1947536475 3.2033199165 3.2160232668 
3.2295389499 3.2410882083 3.2486638 3.2532406086 3.2594047259 3.2610687779 3.2606292066 3.2596541593 3.0827158529 
3.0878892458 3.086522024 3.0838586621 3.0797573797 3.073163903 3.0643483324 3.0559590897 3.0476009611 3.0403184972 
3.0436052558 3.25922167 3.2612108605 3.1248837683 3.2612058428 3.1186297201 3.1770728273 3.0838230166 3.2565898471 
3.107057631 3.1033866643 3.2600739497 3.098501026 3.0854159259 3.0860580707 3.1131253061 3.2594733571 3.2627985185 
3.0873869787 3.0845159509 3.0892015545 3.0961310643 3.0245276695 3.0327809395 3.003672079 3.0112060668 2.9891326046 
2.9983079579 3.0116502825 3.0449655955 3.0677975158 3.0440820555 3.1000324854 3.0660859944 3.0840186651 3.100102643 
3.11085768 3.1235502218 3.1353537715 3.1465814521 3.1545388747 3.1613761455 3.1586797564 3.1526001051 3.1457166662 
3.1385643053 3.1325518478 3.1267666786 3.1211535878 3.1153623887 3.1101750503 3.0939516429 3.0902286364 3.0851378694 
3.0776683878 3.0675093978 3.0576528288 3.0493034782 3.0418654488 3.0308735933 3.1048607402 3.1301734026 3.1456777208 
3.1598048002 3.1692402749 3.1818099273 3.1951566828 3.204167721 3.2171430007 3.2309576335 3.2428685239 3.2518470835 
3.2571812535 3.2642651712 3.2678931816 3.2672223223 3.2671714092 3.0817651799 3.0863938543 3.0850446248 3.0819289208 
3.0782417265 3.0718698135 3.0631477498 3.0548837095 3.0468097282 3.0395065379 3.0429826475 3.2674776481 3.2662480284 
3.1244941936 3.2676260462 3.1181940893 3.1824546817 3.0824342713 3.2609342234 3.1066404584 3.1029725249 3.2671670871 
3.0980684932 3.0836238592 3.0842947023 3.1126467558 3.2668266312 3.2687314304 3.0886482206 3.0851053792 3.0870945379 
3.0959401373 3.0243872304 3.0332049822 3.0040077291 3.0113429808 2.9892709544 2.9985469513 3.0118605925 3.045225554 
3.068077635 3.0445059969 3.0998374014 3.0664252998 3.0846366445 3.1007338199 3.1117587497 3.1242547825 3.1363285784 
3.1473398995 3.1553894882 3.1623431543 3.1592353356 3.1527571611 3.1456277309 3.1385364031 3.1324387234 3.1266294068 
3.1208312413 3.1151565759 3.1099845025 3.0937350128 3.0900428124 3.0850138318 3.077533285 3.0675225731 3.0575631207 
3.0492726631 3.0418146164 3.0310293935 3.1050240396 3.1303162413 3.1461755273 3.1602108666 3.1697879083 3.1822738695 
3.1954918303 3.2048657674 3.2180878011 3.2320214207 3.2441966883 3.2536346904 3.2598438575 3.2675648983 3.2713314293 
3.2724969073 3.2728894992 3.0848535892 3.0838122956 3.083948391 3.0805147654 3.0765610139 3.0700561452 3.0614289162 
3.0532504679 3.0452848272 3.0381183354 3.0414599874 3.2729947046 3.2700540806 3.1242338633 3.2724448379 3.1179766403 
3.2321086928 3.084585881 3.2639391061 3.1064146818 3.1028371594 3.2725586846 3.0978322636 3.0823870137 3.0829584903 
3.112464122 3.2725185758 3.2725024826 3.0942045037 3.0830281555 3.0844591291 3.0958401616 3.0239627115 3.0335319845 
3.0042285514 3.011350365 2.9894833398 2.9988305027 3.0121507326 3.0455769524 3.0684765099 3.0445938568 3.0996335439 
3.0665053974 3.0845892123 3.100696652 3.1119799932 3.1245327861 3.1368640161 3.1478358799 3.1560319569 3.1631457905 
3.1598143027 3.1531535247 3.1458178903 3.1387927256 3.1325484606 3.1267519213 3.1208921157 3.1152537551 3.1100330371 
3.0936679431 3.0900089427 3.0850261284 3.0775425634 3.0675863225 3.0576183253 3.0493535466 3.0418620096 3.031186918 
3.1053879912 3.1306216377 3.1466836507 3.1606609793 3.1703562083 3.1827559427 3.1958609002 3.2055206357 3.2190057895 
3.2329300229 3.2453610584 3.2550173662 3.2615052439 3.269877032 3.2741318607 3.2757159711 3.2764602927 3.0817134652 
3.0795778959 3.0796060486 3.0768377752 3.0728372049 3.0665137472 3.0581858389 3.050236272 3.0424594042 3.0356601254 
3.0387369538 3.2769390945 3.2724847579 3.1243255895 3.2753805501 3.1180490003 3.2872332024 3.0793913582 3.2657570917 
3.106507755 3.1028003146 3.2761307942 3.0976739477 3.0786127222 3.0786683586 3.1125014149 3.2761923294 3.2777674881 
3.0819921783 3.0790044642 3.0797228093 3.0959916588 3.0232506325 3.0337321458 3.0043723666 3.0112465818 2.9897338188 
2.9992247729 3.0125421918 3.0460715991 3.0690011718 3.0445156078 3.0999588208 3.0662619005 3.0844044699 3.10057365 
3.1121309658 3.124631975 3.1371075318 3.1481271576 3.1566332684 3.1638050983 3.1604576958 3.1538195957 3.1463374566 
3.1393403927 3.1329446503 3.1271368611 3.1213265078 3.1156325123 3.1103655407 3.0938921391 3.0902374729 3.0852151571 
3.0777247148 3.0677676014 3.0577756675 3.0494881022 3.0419774272 3.0316064628 3.1059750287 3.1311147428 3.1474648845 
3.1614227555 3.1711735681 3.1835019604 3.1964624707 3.2063403058 3.2201177339 3.2339016533 3.2465200127 3.2563433177 
3.2628234713 3.2713909841 3.2759628026 3.2778867036 3.2789368432 3.0821597212 3.074666728 3.073734216 3.0720835466 
3.0683080537 3.0622267629 3.0540959016 3.0462991151 3.0387977091 3.0324738968 3.0352473859 3.2795338822 3.2742931776 
3.1247764902 3.2773536021 3.1184626374 3.2797354174 3.0755476213 3.2670659427 3.1067987902 3.1032053054 3.2783914257 
3.0978415107 3.0735963659 3.0732715003 3.1128722282 3.2785803758 3.280361967 3.0796172945 3.0741120218 3.0743974625 
3.0964574773 3.0227373812 3.0338812264 3.0044389413 3.0111329092 2.9901109708 2.9997881856 3.0130763901 3.046759892 
3.0696578597 3.0439506329 3.1004358167 3.0655442682 3.0838975832 3.1002705779 3.1120856409 3.1244568859 3.1370791495 
3.1483777256 3.1573800884 3.1641670228 3.1611087206 3.1547220818 3.1471689868 3.1401711586 3.1336491029 3.1277709542 
3.1219811228 3.1161358217 3.1108192373 3.0943190098 3.0906044264 3.0855412016 3.07799573 3.0679973058 3.0579687513 
3.0496334128 3.0421173547 3.0317970654 3.1069107085 3.1319436167 3.1484651847 3.1624916148 3.1723161968 3.1845644281 
3.1974485104 3.2074777509 3.2215734302 3.235129848 3.2478301734 3.2577875139 3.2641440476 3.272622786 3.2776388995 
3.2796418458 3.2806915694 3.0951495917 3.0718735133 3.0705089734 3.0679814882 3.0643529949 3.0585265198 3.0505844073 
3.0429030544 3.0356325575 3.0299192006 3.0321657327 3.2813992762 3.2757750634 3.1254147533 3.278985262 3.1189736599 
3.2805871483 3.0739068094 3.2682911212 3.1072599096 3.1036084682 3.280149073 3.0983230911 3.0694698429 3.0695406789 
3.113346723 3.2803169474 3.2820358795 3.0801333779 3.0712585283 3.0711212751 3.0969700468 3.0229293844 3.0339832666 
3.0045201693 3.0110857884 2.9906857595 3.0007701065 3.0138074684 3.0480911474 3.0707036894 3.0431370978 3.1009154706 
3.0646309723 3.0831478616 3.0995797345 3.1114636323 3.123924288 3.1366628438 3.1484239911 3.1582163208 3.1645623622 
3.1620790728 3.1560398892 3.1484414238 3.1413172232 3.1345777951 3.1285927852 3.1227486384 3.1166781089 3.1113527379 
3.0947571173 3.0910200052 3.0858931186 3.0783143221 3.0682383184 3.058183573 3.0497756893 3.0422849404 3.0317410881 
3.1083908108 3.1332346793 3.149775913 3.1639042753 3.173740316 3.1859855554 3.1988085477 3.2089877729 3.2234114627 
3.2366453435 3.2493837238 3.259313722 3.2655723418 3.273901566 3.2790765683 3.2811044938 3.2822286638 3.0774527751 
3.069212828 3.0678287178 3.0656013065 3.0624243749 3.0570563853 3.0491795742 3.0416101695 3.0346226354 3.0292268625 
3.0314287056 3.2831418873 3.2771489786 3.1262322874 3.2804816645 3.1196862854 3.2825596623 3.0726477647 3.26959556 
3.1076102847 3.103948082 3.2816462046 3.0988440077 3.0670017399 3.0677446172 3.1138784142 3.2818168882 3.2846037424 
3.0730927195 3.0691345919 3.0688641217 3.0976231993 3.0240116174 3.0339247735 3.0044585564 3.0113679602 2.9914594894 
3.0019298074 3.0146557362 3.0500111855 3.0722886184 3.0421932662 3.1016919443 3.0635481962 3.0822548121 3.0981311654 
3.1098813607 3.1226921212 3.1354233704 3.1481936841 3.1582401229 3.1652833571 3.1636068959 3.1579831046 3.1501646664 
3.1427280127 3.1356413763 3.1294165109 3.1236435 3.1173624395 3.1121138589 3.0953977819 3.0916427257 3.086397142 
3.0788003742 3.0685902995 3.0584746289 3.0499641328 3.0424665446 3.0313586549 3.1102278483 3.135047212 3.1513549715 
3.1655483967 3.1754001619 3.1875066261 3.2003984312 3.2106894568 3.22530826 3.2382939565 3.250868947 3.2610728827 
3.2672547152 3.2753696509 3.2809968674 3.2835345073 3.2845147952 3.0796811813 3.0691228572 3.0690169546 3.0676931241 
3.064449994 3.0592670498 3.0510697925 3.0434698413 3.0365689482 3.031326315 3.0331518887 3.2855339937 3.2786741241 
3.1271527586 3.2824494302 3.120548582 3.2714883892 3.0676711421 3.2711206717 3.108358385 3.1047112343 3.283681632 
3.0995910702 3.0692397754 3.0698351882 3.1147100805 3.2840722076 3.2904601604 3.0687989793 3.0682561758 3.0693981466 
3.0984540762 3.0255085067 3.0323251012 3.0032186038 3.0109566866 2.9910435583 3.0021078968 3.0149893927 3.0506962573 
3.0735009956 3.0407667839 3.1026073216 3.0617544297 3.080697344 3.0964298155 3.1082260554 3.1212885257 3.1336196457 
3.148382659 3.1577421835 3.1660578389 3.1659363906 3.1605337116 3.152533951 3.1444686564 3.1369250851 3.1305053718 
3.1245864424 3.1192486194 3.113392074 3.0962186282 3.09235895 3.0870552202 3.0793361737 3.0689584157 3.0587083417 
3.0501163651 3.0425424854 3.0303810355 3.1115005558 3.13660408 3.1525993075 3.1665750601 3.1765815953 3.1889103603 
3.2018923766 3.2122921271 3.2268688027 3.2399943861 3.2530420971 3.2628182742 3.2693326025 3.2776690498 3.2845401642 
3.2865728174 3.286658472 3.0719518084 3.0744415598 3.0742747998 3.072107538 3.0687717804 3.0634477166 3.055055492 
3.0474948672 3.0401164886 3.0348747671 3.0366151519 3.2871695615 3.2813436485 3.1282664329 3.2858266917 3.1214953808 
3.1115331736 3.0746605593 3.2731346854 3.1096838792 3.1057874511 3.2868232805 3.1004641025 3.073628748 3.0744986425 
3.1162001208 3.2868045863 3.2739292099 3.0737528231 3.0744774986 3.0740807748 3.0991197965 3.0262771013 3.0306619915 
3.0002257856 3.0058882799 2.9900783855 3.0002630993 3.0141226439 3.0497262613 3.0733793025 3.0388744503 3.1033186703 
3.0602724158 3.0792967985 3.0959990551 3.1073010034 3.1207725373 3.1322097351 3.1493957202 3.1591750903 3.1683730721 
3.1707411613 3.1646531566 3.1558324296 3.1463174266 3.1383216395 3.1315659841 3.1251015776 3.1191594606 3.1144030881 
3.0971424889 3.0930844565 3.0877228813 3.0801272037 3.0693616944 3.0587852012 3.0500453747 3.0422760945 3.0290217756 
3.1117089221 3.13702612 3.1535356173 3.1680497662 3.1780554806 3.1902374025 3.2032155122 3.2143399596 3.2298467862 
3.2434141182 3.2565304756 3.2694228198 3.2736842849 3.2815365082 3.2869357832 3.2873279144 3.2867753539 3.070294627 
3.0773287786 3.0777501238 3.0770976743 3.0734193045 3.067509156 3.058733797 3.0513515513 3.0439108664 3.0381117843 
3.0407013554 3.2862780879 3.2849408346 3.1287239617 3.2871006651 3.1222083355 3.061796949 3.0758937775 3.2770471516 
3.1098957273 3.106361354 3.2867135858 3.1012326691 3.0778992485 3.0783432309 3.1170291488 3.2863861019 3.0850052246 
3.0737320859 3.0757533451 3.0769781403 3.0994655611 3.0290922369 3.0326179922 3.0034446443 3.0068055393 2.9902585179 
3.000901468 3.0156654766 3.0501565529 3.0726708032 3.0421053009 3.1026833039 3.0628925379 3.0826999673 3.097475961 
3.1097581594 3.123168927 3.1350834166 3.1539921423 3.174529312 3.1759762808 3.1753478658 3.1676122853 3.1562565849 
3.1456314931 3.1376154742 3.1301548584 3.1240769046 3.117413725 3.1121864311 3.0962996906 3.0938969057 3.0883708659 
3.0789495329 3.0694688014 3.0582407677 3.049223545 3.0405027776 3.0275643742 3.10857397 3.1360530973 3.1585226306 
3.1727328107 3.1817292291 3.2000678122 3.208868474 3.2197528329 3.2370077913 3.2499708031 3.265886862 3.2740693697 