# vtk DataFile Version 4.2
vtk output
ASCII
DATASET POLYDATA
POINTS 6391 float
2490.55 -3029.15 5800 2493.85 -3037.31 5800 2522.85 -3037.92 5800 
2541.73 -3029.15 5800 2485.28 -3016.15 5800 2551.86 -3024.44 5800 
2569.71 -3016.14 5800 2480.02 -3003.15 5800 2580.86 -3010.96 5800 
2597.69 -3003.14 5800 2474.76 -2990.14 5800 2609.86 -2997.49 5800 
2625.68 -2990.14 5800 2469.5 -2977.14 5800 2638.86 -2984.01 5800 
2653.66 -2977.14 5800 2464.23 -2964.14 5800 2464.86 -2965.68 5800 
2667.86 -2970.54 5800 2681.64 -2964.14 5800 2458.97 -2951.14 5800 
2696.87 -2957.06 5800 2709.63 -2951.13 5800 2453.71 -2938.14 5800 
2725.87 -2943.59 5800 2737.61 -2938.13 5800 2448.45 -2925.14 5800 
2754.87 -2927.46 5800 2756.46 -2925.13 5800 2443.18 -2912.14 5800 
2762.27 -2912.13 5800 2437.92 -2899.14 5800 2768.07 -2899.13 5800 
2432.66 -2886.14 5800 2435.86 -2894.05 5800 2773.88 -2886.13 5800 
2427.4 -2873.14 5800 2779.68 -2873.13 5800 2422.13 -2860.14 5800 
2783.88 -2863.73 5800 2785.49 -2860.12 5800 2416.87 -2847.14 5800 
2791.29 -2847.12 5800 2411.61 -2834.13 5800 2797.1 -2834.12 5800 
2406.35 -2821.13 5800 2406.87 -2822.42 5800 2802.9 -2821.12 5800 
2401.08 -2808.13 5800 2808.71 -2808.12 5800 2395.82 -2795.13 5800 
2812.88 -2798.77 5800 2814.51 -2795.12 5800 2390.56 -2782.13 5800 
2820.32 -2782.12 5800 2385.3 -2769.13 5800 2826.13 -2769.12 5800 
2376.32 -2756.13 5800 2377.87 -2757.99 5800 2831.93 -2756.11 5800 
2357.56 -2743.13 5800 2837.74 -2743.11 5800 2338.79 -2730.13 5800 
2348.87 -2737.11 5800 2841.89 -2733.82 5800 2843.54 -2730.11 5800 
2320.03 -2717.13 5800 2849.35 -2717.11 5800 2301.26 -2704.13 5800 
2319.87 -2717.02 5800 2855.15 -2704.11 5800 2282.5 -2691.13 5800 
2290.87 -2696.93 5800 2860.96 -2691.11 5800 2263.73 -2678.13 5800 
2866.76 -2678.11 5800 2244.97 -2665.13 5800 2261.87 -2676.84 5800 
2870.89 -2668.86 5800 2872.57 -2665.11 5800 2226.14 -2652.13 5800 
2232.87 -2656.75 5800 2878.37 -2652.1 5800 2206.32 -2639.13 5800 
2884.18 -2639.1 5800 2184.12 -2626.13 5800 2203.87 -2637.58 5800 
2889.91 -2626.1 5800 2161.7 -2613.13 5800 2174.87 -2620.76 5800 
2895.14 -2613.1 5800 2139.29 -2600.13 5800 2145.87 -2603.95 5800 
2899.9 -2600.77 5800 2900.15 -2600.1 5800 2116.87 -2587.13 5800 
2116.87 -2587.13 5800 2904.99 -2587.1 5800 2094.46 -2574.13 5800 
2912.65 -2574.1 5800 2072.04 -2561.13 5800 2087.87 -2570.31 5800 
2923.68 -2561.1 5800 2049.63 -2548.13 5800 2058.87 -2553.49 5800 
2928.9 -2556.08 5800 2937.22 -2548.09 5800 2028.41 -2535.13 5800 
2029.87 -2536.67 5800 2950.76 -2535.09 5800 2020.38 -2522.12 5800 
2957.91 -2528.23 5800 2964.3 -2522.09 5800 2016.16 -2509.12 5800 
2977.83 -2509.09 5800 2014.34 -2496.12 5800 2986.91 -2500.38 5800 
2991.37 -2496.09 5800 2014.69 -2483.12 5800 3004.91 -2483.09 5800 
2015.05 -2470.12 5800 3015.91 -2472.52 5800 3018.45 -2470.09 5800 
2015.4 -2457.12 5800 3031.99 -2457.08 5800 2015.75 -2444.12 5800 
3044.92 -2444.67 5800 3045.53 -2444.08 5800 2016.1 -2431.12 5800 
3059.07 -2431.08 5800 2016.45 -2418.12 5800 3072.61 -2418.08 5800 
2016.8 -2405.12 5800 3073.92 -2416.82 5800 3086.15 -2405.08 5800 
2017.16 -2392.11 5800 3099.69 -2392.08 5800 2017.51 -2379.11 5800 
3102.92 -2388.97 5800 3113.23 -2379.08 5800 2017.86 -2366.11 5800 
3126.76 -2366.07 5800 2018.21 -2353.11 5800 3131.93 -2361.12 5800 
3140.3 -2353.07 5800 2018.56 -2340.11 5800 3153.84 -2340.07 5800 
2018.91 -2327.11 5800 3160.93 -2333.27 5800 3167.38 -2327.07 5800 
2019.26 -2314.11 5800 3180.92 -2314.07 5800 2019.62 -2301.11 5800 
3189.93 -2305.37 5800 3192.44 -2301.07 5800 2019.97 -2288.11 5800 
3193.92 -2288.07 5800 2020.32 -2275.11 5800 3195.41 -2275.06 5800 
2020.67 -2262.1 5800 3196.9 -2262.06 5800 2021.02 -2249.1 5800 
3198.39 -2249.06 5800 2021.37 -2236.1 5800 3199.88 -2236.06 5800 
2021.72 -2223.1 5800 3201.37 -2223.06 5800 2022.08 -2210.1 5800 
3202.86 -2210.06 5800 2022.43 -2197.1 5800 3204.35 -2197.06 5800 
2022.78 -2184.1 5800 3205.84 -2184.06 5800 2023.13 -2171.1 5800 
3207.33 -2171.06 5800 2023.48 -2158.1 5800 3208.82 -2158.06 5800 
2023.84 -2145.1 5800 3210.31 -2145.05 5800 2024.22 -2132.09 5800 
3211.8 -2132.05 5800 2024.6 -2119.09 5800 3213.29 -2119.05 5800 
2024.97 -2106.09 5800 3214.78 -2106.05 5800 2025.39 -2093.09 5800 
3216.27 -2093.05 5800 2025.88 -2080.09 5800 3217.76 -2080.05 5800 
2026.37 -2067.09 5800 3218.95 -2069.62 5800 3219.25 -2067.05 5800 
2026.87 -2054.09 5800 3220.74 -2054.05 5800 2027.36 -2041.09 5800 
3222.23 -2041.05 5800 2024.88 -2028.09 5800 3223.71 -2028.04 5800 
2021.99 -2015.09 5800 3225.2 -2015.04 5800 2019.1 -2002.08 5800 
3226.69 -2002.04 5800 2016.21 -1989.08 5800 3228.18 -1989.04 5800 
2013.31 -1976.08 5800 3229.67 -1976.04 5800 2010.42 -1963.08 5800 
3231.16 -1963.04 5800 2007.53 -1950.08 5800 3232.43 -1950.04 5800 
2004.63 -1937.08 5800 3233.64 -1937.04 5800 2001.74 -1924.08 5800 
3234.7 -1924.04 5800 1998.85 -1911.08 5800 2000.92 -1920.4 5800 
3235.76 -1911.04 5800 1995.95 -1898.08 5800 3236.82 -1898.03 5800 
1993.06 -1885.08 5800 3237.88 -1885.03 5800 1990.17 -1872.08 5800 
3238.94 -1872.03 5800 1987.28 -1859.07 5800 3240.01 -1859.03 5800 
1984.38 -1846.07 5800 3241.07 -1846.03 5800 1981.49 -1833.07 5800 
3242.13 -1833.03 5800 1978.6 -1820.07 5800 3243.19 -1820.03 5800 
1975.72 -1807.07 5800 3244.25 -1807.03 5800 1972.82 -1794.07 5800 
3245.31 -1794.03 5800 1969.92 -1781.07 5800 1971.93 -1790.11 5800 
3246.37 -1781.03 5800 1967.03 -1768.07 5800 3247.43 -1768.02 5800 
1964.13 -1755.07 5800 3247.98 -1761.32 5800 3248.49 -1755.02 5800 
1962.49 -1742.07 5800 3249.55 -1742.02 5800 1962.62 -1729.07 5800 
3250.61 -1729.02 5800 1962.71 -1716.06 5800 3251.61 -1716.02 5800 
1965.48 -1703.06 5800 3252.59 -1703.02 5800 1969.03 -1690.06 5800 
3253.53 -1690.02 5800 1971.94 -1679.39 5800 1972.61 -1677.06 5800 
3254.45 -1677.02 5800 1976.35 -1664.06 5800 3255.34 -1664.02 5800 
1980.06 -1651.06 5800 3256.2 -1651.01 5800 1983.76 -1638.06 5800 
3257.04 -1638.01 5800 1987.45 -1625.06 5800 3257.86 -1625.01 5800 
1991.11 -1612.06 5800 3258.65 -1612.01 5800 1994.75 -1599.05 5800 
3259.42 -1599.01 5800 1998.38 -1586.05 5800 3265.23 -1586.01 5800 
2000.95 -1576.81 5800 2002.02 -1573.05 5800 3266.65 -1573.01 5800 
2005.75 -1560.05 5800 3267.31 -1560.01 5800 2009.47 -1547.05 5800 
3267.61 -1547.01 5800 2013.19 -1534.05 5800 3268.86 -1534.01 5800 
2016.92 -1521.05 5800 3269.45 -1521 5800 2020.64 -1508.05 5800 
3269.87 -1508 5800 2023.4 -1495.05 5800 3270.29 -1495 5800 
2024.28 -1482.04 5800 3270.71 -1482 5800 2025.24 -1469.04 5800 
3271.14 -1469 5800 2026.19 -1456.04 5800 3271.56 -1456 5800 
2027.1 -1443.04 5800 3271.98 -1443 5800 2028.11 -1430.04 5800 
3272.4 -1430 5800 2029.48 -1417.04 5800 3272.83 -1417 5800 
2029.96 -1412.51 5800 2030.88 -1404.04 5800 3273.25 -1404 5800 
2032.24 -1391.04 5800 3273.67 -1390.99 5800 2033.6 -1378.04 5800 
3274.09 -1377.99 5800 2034.97 -1365.03 5800 3274.52 -1364.99 5800 
2036.34 -1352.03 5800 3274.94 -1351.99 5800 2037.72 -1339.03 5800 
3275.36 -1338.99 5800 2038.75 -1326.03 5800 3275.78 -1325.99 5800 
2039.59 -1313.03 5800 3276.21 -1312.99 5800 2040.42 -1300.03 5800 
3276.63 -1299.99 5800 2041.26 -1287.03 5800 3277.01 -1288.1 5800 
3277.05 -1286.99 5800 2042.1 -1274.03 5800 3277.47 -1273.98 5800 
2042.94 -1261.03 5800 3277.89 -1260.98 5800 2043.78 -1248.03 5800 
3278.32 -1247.98 5800 2044.65 -1235.02 5800 3278.74 -1234.98 5800 
2043.94 -1222.02 5800 3279.16 -1221.98 5800 2043.35 -1209.02 5800 
3279.58 -1208.98 5800 2042.87 -1196.02 5800 3280.01 -1195.98 5800 
2042.45 -1183.02 5800 3280.43 -1182.98 5800 2042.1 -1170.02 5800 
3280.86 -1169.98 5800 2041.8 -1157.02 5800 3281.3 -1156.98 5800 
2041.53 -1144.02 5800 3281.75 -1143.97 5800 2041.29 -1131.02 5800 
3282.2 -1130.97 5800 2040.97 -1118.02 5800 3282.65 -1117.97 5800 
2039.77 -1105.01 5800 3283.17 -1104.97 5800 2038.56 -1092.01 5800 
3283.62 -1091.97 5800 2037.08 -1079.01 5800 3283.75 -1078.97 5800 
2033.93 -1066.01 5800 3284.08 -1065.97 5800 2035.76 -1053.01 5800 
3284.42 -1052.97 5800 2037.02 -1040.01 5800 3284.74 -1039.97 5800 
2038.65 -1027.01 5800 3285.06 -1026.97 5800 2040.69 -1014.01 5800 
3285.38 -1013.96 5800 2042.73 -1001.01 5800 3285.69 -1000.96 5800 
2044.77 -988.005 5800 3286.08 -987.963 5800 2046.8 -975.004 5800 
3286.47 -974.962 5800 2048.84 -962.003 5800 3286.86 -961.961 5800 
2050.88 -949.002 5800 2547.77 -948.985 5800 2552.01 -952.123 5800 
2581.02 -958.327 5800 2602.78 -948.983 5800 3286.59 -948.96 5800 
2052.92 -936.001 5800 2531.11 -935.985 5800 2610.02 -945.359 5800 
2639.02 -941.973 5800 2668.02 -939.753 5800 2697.02 -938.247 5800 
2726.02 -936.979 5800 2731.22 -935.978 5800 3285.76 -935.959 5800 
2054.9 -923 5800 2512.66 -922.984 5800 2523.02 -929.741 5800 
2755.02 -929.834 5800 2758.4 -922.976 5800 3285.11 -922.958 5800 
2056.94 -909.999 5800 2496.21 -909.984 5800 2764.81 -909.975 5800 
3283.13 -909.957 5800 2059 -897.222 5800 2059.04 -896.998 5800 
2473.38 -896.984 5800 2494.02 -908.435 5800 2771.21 -896.973 5800 
3280.4 -896.956 5800 2061.08 -883.997 5800 2453.91 -883.983 5800 
2465.02 -890.595 5800 2777.62 -883.972 5800 3277.67 -883.955 5800 
2063.11 -870.996 5800 2432.06 -870.983 5800 2436.02 -873.339 5800 
2784.03 -870.971 5800 3277.05 -880.989 5800 3274.94 -870.954 5800 
2065.15 -857.995 5800 2415.49 -857.983 5800 2784.03 -870.964 5800 
2790.43 -857.97 5800 3272.21 -857.953 5800 2067.19 -844.994 5800 
2405.62 -844.982 5800 2407.02 -848.349 5800 2796.84 -844.969 5800 
3269.48 -844.952 5800 2069.21 -831.993 5800 2400.24 -831.981 5800 
2803.24 -831.967 5800 3266.75 -831.951 5800 2071.18 -818.992 5800 
2392.59 -818.98 5800 2809.65 -818.966 5800 3264.02 -818.95 5800 
2073.18 -805.991 5800 2383.2 -805.98 5800 2813.03 -812.095 5800 
2816.12 -805.965 5800 3261.28 -805.95 5800 2075.13 -792.989 5800 
2373.82 -792.979 5800 2378.02 -798.798 5800 2824.68 -792.964 5800 
3258.39 -792.949 5800 2077.08 -779.988 5800 2364.44 -779.978 5800 
2837.17 -779.962 5800 3255.09 -779.948 5800 2079.03 -766.987 5800 
2355.05 -766.978 5800 2842.04 -775.078 5800 2850.79 -766.961 5800 
[...]
POINT_DATA 6391
SCALARS Pressure double
LOOKUP_TABLE default
3.0932710339 3.0932710339 3.0932710339 3.0932710339 3.0932710339 3.0932710339 3.0932710339 3.0932710339 3.0932710339 
3.0932710339 3.0932710339 3.0932710339 3.0932710339 3.0932710339 3.0932710339 3.0932710339 3.0932710339 3.0932710339 
3.0932710339 3.0932710339 3.0932710339 3.0932710339 3.0932710339 3.0932710339 3.0932710339 3.0932710339 3.0932710339 
3.0932710339 3.0932710339 3.0932710339 3.0932710339 3.0932710339 3.0932710339 3.0932710339 3.0932710339 3.0932710339 
3.0932710339 3.0932710339 3.0932710339 3.0932710339 3.0932710339 3.0932710339 3.0932710339 3.0932710339 3.0932710339 
3.0932710339 3.0932710339 3.0932710339 3.0932710339 3.0932710339 3.0932710339 3.0932710339 3.0932710339 3.0932710339 
3.0932710339 3.0932710339 3.0932710339 3.0932710339 3.0932710339 3.0932710339 3.0932710339 3.0932710339 3.0932710339 
3.0932710339 3.0932710339 3.0932710339 3.0932710339 3.0932710339 3.0932710339 3.0932710339 3.0932710339 3.0932710339 
3.0932710339 3.0932710339 3.0932710339 3.0932710339 3.0932710339 3.0932710339 3.0932710339 3.0932710339 3.0932710339 
3.0932710339 3.0932710339 3.0932710339 3.0932710339 3.0932710339 3.0932710339 3.0932710339 3.0932710339 3.0932710339 
3.0932710339 3.0932710339 3.0932710339 3.0932710339 3.0932710339 3.0932710339 3.0932710339 3.0932710339 3.0932710339 
3.0932710339 3.0932710339 3.0932710339 3.0932710339 3.0932710339 3.0932710339 3.0932710339 3.0932710339 3.0932710339 
3.0932710339 3.0932710339 3.0932710339 3.0932710339 3.0932710339 3.0932710339 3.0932710339 3.0932710339 3.0932710339 
3.0932710339 3.0932710339 3.0932710339 3.0932710339 3.0932710339 3.0932710339 3.0932710339 3.0932710339 3.0932710339 
3.0932710339 3.0932710339 3.0932710339 3.0932710339 3.0932710339 3.0932710339 3.0932710339 3.0932710339 3.0932710339 
3.0932710339 3.0932710339 3.0932710339 3.0932710339 3.0932710339 3.0932710339 3.0932710339 3.0932710339 3.0932710339 
3.0932710339 3.0932710339 3.0932710339 3.0932710339 3.0932710339 3.0932710339 3.0932710339 3.0932710339 3.0932710339 
3.0932710339 3.0932710339 3.0932710339 3.0932710339 3.0932710339 3.0932710339 3.0932710339 3.0932710339 3.0932710339 
3.0932710339 3.0932710339 3.0932710339 3.0932710339 3.0932710339 3.0932710339 3.0932710339 3.0932710339 3.0932710339 
3.0932710339 3.0932710339 3.0932710339 3.0932710339 3.0932710339 3.0932710339 3.0932710339 3.0932710339 3.0932710339 
3.0932710339 3.0932710339 3.0932710339 3.0932710339 3.0932710339 3.0932710339 3.0932710339 3.0932710339 3.0932710339 
3.0932710339 3.0932710339 3.0932710339 3.0932710339 3.0932710339 3.0932710339 3.0932710339 3.0932710339 3.0932710339 
3.0932710339 3.0932710339 3.0932710339 3.0932710339 3.0932710339 3.0932710339 3.0932710339 3.0932710339 3.0932710339 
3.0932710339 3.0932710339 3.0932710339 3.0932710339 3.0932710339 3.0932710339 3.0932710339 3.0932710339 3.0932710339 
3.0932710339 3.0932710339 3.0932710339 3.0932710339 3.0932710339 3.0932710339 3.0932710339 3.0932710339 3.0932710339 
3.0932710339 3.0932710339 3.0932710339 3.0932710339 3.0932710339 3.0932710339 3.0932710339 3.0932710339 3.0932710339 
3.0932710339 3.0932710339 3.0932710339 3.0932710339 3.0932710339 3.0932710339 3.0932710339 3.0932710339 3.0932710339 
3.0932710339 3.0932710339 3.0932710339 3.0932710339 3.0932710339 3.0932710339 3.0932710339 3.0932710339 3.0932710339 
3.0932710339 3.0932710339 3.0932710339 3.0932710339 3.0932710339 3.0932710339 3.0932710339 3.0932710339 3.0932710339 
3.0932710339 3.0932710339 3.0932710339 3.0932710339 3.0932710339 3.0932710339 3.0932710339 3.0932710339 3.0932710339 
3.0932710339 3.0932710339 3.0932710339 3.0932710339 3.0932710339 3.0932710339 3.0932710339 3.0932710339 3.0932710339 
3.0932710339 3.0932710339 3.0932710339 3.0932710339 3.0932710339 3.0932710339 3.0932710339 3.0932710339 3.0932710339 
3.0932710339 3.0932710339 3.0932710339 3.0932710339 3.0932710339 3.0932710339 3.0932710339 3.0932710339 3.0932710339 
3.0932710339 3.0932710339 3.0932710339 3.0932710339 3.0932710339 3.0932710339 3.0932710339 3.0932710339 3.0932710339 
3.0932710339 3.0932710339 3.0932710339 3.0932710339 3.0932710339 3.0932710339 3.0932710339 3.0932710339 3.0932710339 
3.0932710339 3.0932710339 3.0932710339 3.0932710339 3.0932710339 3.0932710339 3.0932710339 3.0932710339 3.0932710339 
3.0932710339 3.0932710339 3.0932710339 3.0932710339 3.0932710339 3.0932710339 3.0932710339 3.0932710339 3.0932710339 
3.0932710339 3.0932710339 3.0932710339 3.0932710339 3.0932710339 3.0932710339 3.0932710339 3.0932710339 3.0932710339 
3.0932710339 3.0932710339 3.0932710339 3.0932710339 3.0932710339 3.0932710339 3.0932710339 3.0932710339 3.0932710339 
3.0932710339 3.0932710339 3.0932710339 3.0932710339 3.0932710339 3.0932710339 3.0932710339 3.0932710339 3.0932710339 
3.0932710339 3.0932710339 3.0932710339 3.0932710339 3.0932710339 3.0932710339 3.0932710339 3.0932710339 3.0932710339 
3.0932710339 3.1078652246 3.1078652246 3.1078652246 3.1078652246 3.0932710339 3.0932710339 3.1078652246 3.1078652246 
3.1078652246 3.1078652246 3.1078652246 3.1078652246 3.1078652246 3.0932710339 3.0932710339 3.1078652246 3.1078652246 
3.1078652246 3.1078652246 3.0932710339 3.0932710339 3.1078652246 3.1078652246 3.0932710339 3.0932710339 3.0932710339 
3.1078652246 3.1078652246 3.1078652246 3.0932710339 3.0932710339 3.1078652246 3.1078652246 3.1078652246 3.0932710339 
3.0932710339 3.1078652246 3.1078652246 3.1078652246 3.0932710339 3.0932710339 3.0932710339 3.1078652246 3.1078652246 
3.1078652246 3.0932710339 3.0932710339 3.1078652246 3.1078652246 3.1078652246 3.0932710339 3.0932710339 3.1078652246 
3.1078652246 3.0932710339 3.0932710339 3.1078652246 3.1078652246 3.0932710339 3.0932710339 3.1078652246 3.1078652246 
3.1078652246 3.0932710339 3.0932710339 3.1078652246 3.1078652246 3.1078652246 3.0932710339 3.0932710339 3.1078652246 
3.1078652246 3.0932710339 3.0932710339 3.1078652246 3.1078652246 3.1078652246 3.0932710339 3.0932710339 3.1078652246 
3.1078652246 3.1078652246 3.0932710339 3.0932710339 3.1078652246 3.1078652246 3.1078652246 3.0932710339 3.0932710339 
3.0932710339 3.1078652246 3.1078652246 3.0932710339 3.0932710339 3.1078652246 3.1078652246 3.1078652246 3.0932710339 
3.0932710339 3.1078652246 3.1078652246 3.0932710339 3.0932710339 3.1078652246 3.1078652246 3.1078652246 3.0932710339 
3.0932710339 3.1078652246 3.1078652246 3.0932710339 3.0932710339 3.1078652246 3.1078652246 3.0932710339 3.0932710339 
3.1078652246 3.1078652246 3.0932710339 3.0932710339 3.0932710339 3.1078652246 3.1078652246 3.0932710339 3.0932710339 
3.1078652246 3.1078652246 3.1078652246 3.0932710339 3.0932710339 3.1078652246 3.1078652246 3.0932710339 3.0932710339 
3.1078652246 3.1078652246 3.1224594153 3.1224594153 3.1224594153 3.1224594153 3.1078652246 3.0932710339 3.0932710339 
3.1078652246 3.1224594153 3.1224594153 3.1224594153 3.1224594153 3.1078652246 3.0932710339 3.0932710339 3.1078652246 
3.1224594153 3.1224594153 3.1224594153 3.1224594153 3.1078652246 3.0932710339 3.0932710339 3.1078652246 3.1224594153 
3.1224594153 3.1224594153 3.1078652246 3.1078652246 3.0932710339 3.0932710339 3.1078652246 3.1224594153 3.1224594153 
3.1224594153 3.1224594153 3.1078652246 3.0932710339 3.0932710339 3.1078652246 3.1224594153 3.1224594153 3.1078652246 
3.0932710339 3.0932710339 3.1078652246 3.1078652246 3.1224594153 3.1224594153 3.1224594153 3.1078652246 3.0932710339 
3.0932710339 3.1078652246 3.1224594153 3.1224594153 3.1224594153 3.1078652246 3.0932710339 3.0932710339 3.0786768432 
3.0786768432 3.0786768432 3.0932710339 3.1078652246 3.1224594153 3.1224594153 3.1224594153 3.1078652246 3.1078652246 
3.0932710339 3.0786768432 3.0786768432 3.0786768432 3.0786768432 3.0932710339 3.1078652246 3.1224594153 3.1224594153 
3.1078652246 3.0932710339 3.0786768432 3.0786768432 3.0786768432 3.0786768432 3.0786768432 3.0786768432 3.0786768432 
3.0786768432 3.0786768432 3.0786768432 3.0786768432 3.0932710339 3.1078652246 3.1224594153 3.1224594153 3.1224594153 
3.1078652246 3.0932710339 3.0786768432 3.0786768432 3.0786768432 3.0786768432 3.0786768432 3.0786768432 3.0786768432 
3.0932710339 3.1078652246 3.1224594153 3.1224594153 3.1224594153 3.1078652246 3.0932710339 3.0786768432 3.0786768432 
3.0786768432 3.0786768432 3.0786768432 3.0786768432 3.0786768432 3.0932710339 3.0932710339 3.1078652246 3.1224594153 
3.1224594153 3.1078652246 3.0932710339 3.0786768432 3.0786768432 3.0786768432 3.0786768432 3.0786768432 3.0786768432 
3.0786768432 3.0932710339 3.1078652246 3.1224594153 3.1224594153 3.1224594153 3.1078652246 3.1078652246 3.0932710339 
3.0786768432 3.0786768432 3.0786768432 3.0786768432 3.0786768432 3.0932710339 3.1078652246 3.1078652246 3.1224594153 
3.1224594153 3.1224594153 3.1078652246 3.0932710339 3.0786768432 3.0786768432 3.0786768432 3.0786768432 3.0786768432 
3.0786768432 3.0932710339 3.1078652246 3.1224594153 3.137053606 3.137053606 3.137053606 3.1224594153 3.1078652246 
3.0932710339 3.0786768432 3.0786768432 3.0786768432 3.0786768432 3.0786768432 3.0932710339 3.1078652246 3.1224594153 
3.137053606 3.137053606 3.137053606 3.137053606 3.1224594153 3.1078652246 3.0932710339 3.0786768432 3.0786768432 
3.0786768432 3.0786768432 3.0786768432 3.0932710339 3.1078652246 3.1224594153 3.1224594153 3.137053606 3.137053606 
3.137053606 3.137053606 3.1224594153 3.1224594153 3.1078652246 3.0932710339 3.0786768432 3.0786768432 3.0786768432 
3.0786768432 3.0786768432 3.0786768432 3.0786768432 3.0932710339 3.1078652246 3.1224594153 3.137053606 3.137053606 
3.137053606 3.137053606 3.1224594153 3.1078652246 3.0932710339 3.0786768432 3.0786768432 3.0786768432 3.0786768432 
3.0786768432 3.0932710339 3.1078652246 3.1224594153 3.137053606 3.137053606 3.1224594153 3.1078652246 3.1078652246 
3.0932710339 3.0786768432 3.0786768432 3.0786768432 3.0786768432 3.0786768432 3.0786768432 3.0932710339 3.1078652246 
3.1224594153 3.137053606 3.137053606 3.137053606 3.137053606 3.1224594153 3.1078652246 3.0932710339 3.0786768432 
3.0786768432 3.0786768432 3.0786768432 3.0786768432 3.0932710339 3.1078652246 3.1224594153 3.137053606 3.137053606 
3.1224594153 3.1224594153 3.1078652246 3.0932710339 3.0786768432 3.0786768432 3.0786768432 3.0786768432 3.0786768432 
3.0786768432 3.0932710339 3.1078652246 3.1224594153 3.137053606 3.137053606 3.1224594153 3.1078652246 3.0932710339 
3.0786768432 3.0786768432 3.0786768432 3.0786768432 3.0786768432 3.0932710339 3.1078652246 3.1224594153 3.1224594153 
3.137053606 3.137053606 3.137053606 3.137053606 3.1224594153 3.1078652246 3.0932710339 3.0786768432 3.0786768432 
3.0786768432 3.0786768432 3.0786768432 3.0932710339 3.1078652246 3.1224594153 3.137053606 3.137053606 3.1224594153 
3.1078652246 3.0932710339 3.0786768432 3.0786768432 3.0786768432 3.0786768432 3.0932710339 3.1078652246 3.1224594153 
3.137053606 3.137053606 3.1224594153 3.1078652246 3.0932710339 3.0786768432 3.0786768432 3.0786768432 3.0786768432 
3.0786768432 3.0786768432 3.0932710339 3.1078652246 3.1224594153 3.137053606 3.137053606 3.1516477967 3.1516477967 
3.1516477967 3.137053606 3.1224594153 3.1224594153 3.1078652246 3.0932710339 3.0786768432 3.0786768432 3.0786768432 
3.0786768432 3.0786768432 3.0932710339 3.1078652246 3.1078652246 3.1224594153 3.137053606 3.1516477967 3.1516477967 
3.1516477967 3.1516477967 3.1516477967 3.137053606 3.137053606 3.1224594153 3.1078652246 3.1078652246 3.0932710339 
3.0786768432 3.0786768432 3.0786768432 3.0786768432 3.0932710339 3.1078652246 3.1224594153 3.1224594153 3.137053606 
3.1516477967 3.1516477967 3.1516477967 3.137053606 3.1224594153 3.1078652246 3.0932710339 3.0786768432 3.0786768432 
3.0786768432 3.0786768432 3.0932710339 3.1078652246 3.1224594153 3.137053606 3.137053606 3.1516477967 3.1516477967 
3.1516477967 3.1516477967 3.137053606 3.1224594153 3.1078652246 3.0932710339 3.0786768432 3.0786768432 3.0786768432 
3.0786768432 3.0786768432 3.0932710339 3.0932710339 3.1078652246 3.1224594153 3.137053606 3.1516477967 3.1516477967 
3.137053606 3.1224594153 3.1078652246 3.0932710339 3.0786768432 3.0786768432 3.0786768432 3.0786768432 3.0640826525 
3.0640826525 3.0640826525 3.0640826525 3.0640826525 3.0786768432 3.0932710339 3.1078652246 3.1224594153 3.137053606 
3.1516477967 3.1516477967 3.1516477967 3.1516477967 3.137053606 3.1224594153 3.1078652246 3.0932710339 3.0786768432 
3.0786768432 3.0786768432 3.0786768432 3.0640826525 3.0640826525 3.0640826525 3.0640826525 3.0640826525 3.0640826525 
3.0786768432 3.0932710339 3.1078652246 3.1224594153 3.137053606 3.137053606 3.1516477967 3.1516477967 3.137053606 
3.137053606 3.1224594153 3.1078652246 3.0932710339 3.0786768432 3.0786768432 3.0786768432 3.0786768432 3.0640826525 
3.0640826525 3.0640826525 3.0786768432 3.0932710339 3.1078652246 3.1224594153 3.1224594153 3.137053606 3.1516477967 
3.1516477967 3.137053606 3.1224594153 3.1078652246 3.0932710339 3.0786768432 3.0786768432 3.0786768432 3.0640826525 
3.0640826525 3.0786768432 3.0932710339 3.0932710339 3.1078652246 3.1224594153 3.137053606 3.1516477967 3.1516477967 
3.1516477967 3.137053606 3.1224594153 3.1078652246 3.0932710339 3.0786768432 3.0786768432 3.0786768432 3.0640826525 
3.0640826525 3.0640826525 3.0640826525 3.0786768432 3.0932710339 3.1078652246 3.1224594153 3.137053606 3.1516477967 
3.1516477967 3.1516477967 3.137053606 3.1224594153 3.1078652246 3.0932710339 3.0786768432 3.0786768432 3.0786768432 
3.0786768432 3.0786768432 3.0640826525 3.0640826525 3.0786768432 3.0932710339 3.1078652246 3.1224594153 3.137053606 
3.137053606 3.1516477967 3.1662419875 3.1662419875 3.1662419875 3.1516477967 3.137053606 3.1224594153 3.1078652246 
3.0932710339 3.0786768432 3.0786768432 3.0786768432 3.0640826525 3.0640826525 3.0786768432 3.0932710339 3.1078652246 
3.1224594153 3.137053606 3.1516477967 3.1662419875 3.1662419875 3.1662419875 3.1662419875 3.1662419875 3.1516477967 
3.137053606 3.1224594153 3.1078652246 3.1078652246 3.0932710339 3.0786768432 3.0786768432 3.0786768432 3.0786768432 
3.0640826525 3.0494884618 3.0494884618 3.0494884618 3.0494884618 3.0640826525 3.0786768432 3.0786768432 3.0932710339 
3.0932710339 3.1078652246 3.1078652246 3.1224594153 3.1224594153 3.137053606 3.1516477967 3.1516477967 3.1662419875 
3.1662419875 3.1662419875 3.1516477967 3.137053606 3.1224594153 3.1078652246 3.0932710339 3.0786768432 3.0786768432 
3.0786768432 3.0786768432 3.0786768432 3.0786768432 3.0786768432 3.0786768432 3.0640826525 3.0640826525 3.0494884618 
3.0494884618 3.0494884618 3.0494884618 3.0640826525 3.0640826525 3.0786768432 3.0932710339 3.0932710339 3.1078652246 
3.1224594153 3.137053606 3.137053606 3.1516477967 3.1662419875 3.1662419875 3.1662419875 3.1516477967 3.137053606 
3.1224594153 3.1078652246 3.0932710339 3.0932710339 3.0786768432 3.0640826525 3.0640826525 3.0640826525 3.0786768432 
3.0786768432 3.0786768432 3.0640826525 3.0494884618 3.0494884618 3.0494884618 3.0640826525 3.0786768432 3.0932710339 
3.1078652246 3.1224594153 3.137053606 3.1516477967 3.1662419875 3.1662419875 3.1662419875 3.1516477967 3.137053606 
3.1224594153 3.1078652246 3.0932710339 3.0786768432 3.0786768432 3.0640826525 3.0640826525 3.0640826525 3.0640826525 
3.0786768432 3.0786768432 3.0786768432 3.0640826525 3.0494884618 3.0494884618 3.0494884618 3.0640826525 3.0786768432 
3.0932710339 3.1078652246 3.1224594153 3.137053606 3.1516477967 3.1516477967 3.1662419875 3.1662419875 3.1516477967 
3.137053606 3.137053606 3.1224594153 3.1078652246 3.0932710339 3.0786768432 3.0640826525 3.0640826525 3.0640826525 
3.0640826525 3.0786768432 3.0786768432 3.0640826525 3.0494884618 3.0348942711 3.0348942711 3.0348942711 3.0348942711 
3.0494884618 3.0640826525 3.0786768432 3.0932710339 3.1078652246 3.1224594153 3.137053606 3.1516477967 3.1662419875 
2.9619233175 2.9619233175 2.9765175082 2.9765175082 2.991111699 2.991111699 3.0057058897 3.0057058897 3.0203000804 
3.0203000804 3.0348942711 3.0348942711 3.0494884618 3.0494884618 3.0640826525 3.0640826525 3.0786768432 3.0786768432 
3.0932710339 3.0932710339 3.1078652246 3.1078652246 3.1224594153 3.1224594153 3.137053606 3.137053606 3.1516477967 
3.1516477967 3.1662419875 3.1662419875 2.9619233175 2.9765175082 2.991111699 3.0057058897 3.0203000804 3.0348942711 
3.0494884618 3.0640826525 3.0786768432 3.0932710339 3.1078652246 3.1224594153 3.137053606 3.1516477967 3.1662419875 
2.9619233175 2.9765175082 2.991111699 3.0057058897 3.0203000804 3.0348942711 3.0494884618 3.0640826525 3.0786768432 
3.0932710339 3.1078652246 3.1224594153 3.137053606 3.1516477967 3.1662419875 2.9619233175 2.9765175082 2.991111699 
3.0057058897 3.0203000804 3.0348942711 3.0494884618 3.0640826525 3.0786768432 3.0932710339 3.1078652246 3.1224594153 
3.137053606 3.1516477967 3.1662419875 2.9619233175 2.9765175082 2.991111699 3.0057058897 3.0203000804 3.0348942711 
3.0494884618 3.0640826525 3.0786768432 3.0932710339 3.1078652246 3.1224594153 3.137053606 3.1516477967 3.1662419875 
2.9619233175 2.9765175082 2.991111699 3.0057058897 3.0203000804 3.0348942711 3.0494884618 3.0640826525 3.0786768432 
3.0932710339 3.1078652246 3.1224594153 3.137053606 3.1516477967 2.9619233175 2.9765175082 2.991111699 3.0057058897 
3.0203000804 3.0348942711 3.0494884618 3.0640826525 3.0786768432 3.0932710339 3.1078652246 3.1224594153 3.137053606 
3.1516477967 3.1516477967 3.137053606 3.1224594153 3.1078652246 3.0932710339 3.0786768432 3.0640826525 3.0640826525 
3.0640826525 3.0786768432 3.0786768432 3.0786768432 3.0640826525 3.0494884618 3.0348942711 3.0348942711 3.0348942711 
3.0494884618 3.0494884618 3.0640826525 3.0786768432 3.0932710339 3.1078652246 3.1224594153 3.1224594153 3.137053606 
3.137053606 2.9619233175 2.9619233175 2.9765175082 2.9765175082 2.991111699 2.991111699 3.0057058897 3.0057058897 
3.0203000804 3.0203000804 3.0348942711 3.0348942711 3.0494884618 3.0494884618 3.0640826525 3.0640826525 3.0786768432 
3.0786768432 3.0932710339 3.0932710339 3.1078652246 3.1078652246 3.1224594153 3.1224594153 3.137053606 3.137053606 
2.9619233175 2.9765175082 2.991111699 3.0057058897 3.0203000804 3.0348942711 3.0494884618 3.0640826525 3.0786768432 
3.0932710339 3.1078652246 3.1224594153 3.137053606 3.1516477967 2.9619233175 2.9765175082 2.991111699 3.0057058897 
3.0203000804 3.0348942711 3.0494884618 3.0640826525 3.0786768432 3.0932710339 3.1078652246 3.1224594153 3.137053606 
3.1516477967 2.9619233175 2.9765175082 2.991111699 3.0057058897 3.0203000804 3.0348942711 3.0494884618 3.0640826525 
3.0786768432 3.0932710339 3.1078652246 3.1224594153 3.137053606 3.1516477967 2.9619233175 2.9765175082 2.991111699 
3.0057058897 3.0203000804 3.0348942711 3.0494884618 3.0640826525 3.0786768432 3.0932710339 3.1078652246 3.1224594153 
3.137053606 3.1516477967 3.1662419875 2.9619233175 2.9765175082 2.991111699 3.0057058897 3.0203000804 3.0348942711 
3.0494884618 3.0640826525 3.0786768432 3.0932710339 3.1078652246 3.1224594153 3.137053606 3.1516477967 3.1662419875 
2.9619233175 2.9765175082 2.991111699 3.0057058897 3.0203000804 3.0348942711 3.0494884618 3.0640826525 3.0786768432 
3.0932710339 3.1078652246 3.1224594153 3.137053606 3.1516477967 2.9619233175 2.9765175082 2.991111699 3.0057058897 
3.0203000804 3.0348942711 3.0494884618 3.0640826525 3.0786768432 3.0932710339 3.1078652246 3.1224594153 3.137053606 
3.1516477967 2.9619233175 2.9765175082 2.991111699 3.0057058897 3.0203000804 3.0348942711 3.0494884618 3.0640826525 
3.0786768432 3.0932710339 3.1078652246 3.1224594153 3.137053606 2.9619233175 2.9765175082 2.991111699 3.0057058897 
3.0203000804 3.0348942711 3.0494884618 3.0640826525 3.0786768432 3.0932710339 3.1078652246 3.1224594153 3.137053606 
2.9619233175 2.9765175082 2.991111699 3.0057058897 3.0203000804 3.0348942711 3.0494884618 3.0640826525 3.0786768432 
3.0932710339 3.1078652246 3.1224594153 3.137053606 2.9619233175 2.9765175082 2.991111699 3.0057058897 3.0203000804 
3.0348942711 3.0494884618 3.0640826525 3.0786768432 3.0932710339 3.1078652246 3.1224594153 2.9619233175 2.9765175082 