# vtk DataFile Version 4.2
vtk output
ASCII
DATASET POLYDATA
POINTS 7052 float
1582.96 -3281.15 0 1590.85 -3281.95 0 1592.51 -3281.15 0 
1546.07 -3264.15 0 1553.85 -3276.99 0 1627.85 -3264.2 0 
1627.96 -3264.15 0 1535.78 -3247.15 0 1663.4 -3247.15 0 
1525.49 -3230.15 0 1664.85 -3246.45 0 1698.84 -3230.14 0 
1515.2 -3213.15 0 1516.85 -3215.88 0 1701.86 -3228.7 0 
1734.29 -3213.14 0 1504.91 -3196.15 0 1738.86 -3210.95 0 
1769.73 -3196.14 0 1494.62 -3179.15 0 1775.86 -3193.2 0 
1805.18 -3179.14 0 1484.33 -3162.15 0 1812.86 -3175.45 0 
1840.62 -3162.14 0 1474.04 -3145.15 0 1479.85 -3154.76 0 
1849.86 -3157.7 0 1876.07 -3145.13 0 1463.74 -3128.14 0 
1886.87 -3139.95 0 1911.51 -3128.13 0 1453.45 -3111.14 0 
1923.87 -3122.21 0 1946.96 -3111.13 0 1443.16 -3094.14 0 
1960.87 -3104.46 0 1982.4 -3094.13 0 1432.87 -3077.14 0 
1442.86 -3093.64 0 1997.87 -3086.71 0 2017.85 -3077.13 0 
1422.58 -3060.14 0 2034.87 -3068.96 0 2071.88 -3060.19 0 
2072.35 -3060.12 0 1412.29 -3043.14 0 2108.88 -3055.74 0 
2145.88 -3051.29 0 2182.88 -3046.84 0 2213.88 -3043.12 0 
1402 -3026.14 0 1405.86 -3032.52 0 2219.88 -3042.4 0 
2256.88 -3037.95 0 2293.88 -3033.51 0 2300.62 -3026.12 0 
1391.7 -3009.14 0 2311.27 -3009.11 0 1381.41 -2992.14 0 
2316.91 -2992.11 0 1371.12 -2975.14 0 2320.54 -2975.11 0 
1360.83 -2958.14 0 1368.86 -2971.41 0 2324.16 -2958.11 0 
1350.54 -2941.14 0 2327.79 -2941.11 0 1340.25 -2924.14 0 
2330.89 -2926.59 0 2331.42 -2924.11 0 1310.75 -2907.14 0 
1331.86 -2919.22 0 2335.05 -2907.11 0 1266.67 -2890.14 0 
1294.86 -2901.01 0 2338.68 -2890.11 0 1222.6 -2873.14 0 
1257.86 -2886.74 0 2342.31 -2873.11 0 1178.53 -2856.14 0 
1183.86 -2858.2 0 1220.86 -2872.47 0 2345.94 -2856.1 0 
1134.45 -2839.14 0 1146.86 -2843.92 0 2349.56 -2839.1 0 
1090.38 -2822.14 0 1109.86 -2829.65 0 2353.19 -2822.1 0 
1046.31 -2805.14 0 1072.86 -2815.38 0 2356.82 -2805.1 0 
1015.98 -2788.14 0 1035.86 -2800.99 0 2360.45 -2788.1 0 
993.406 -2771.14 0 998.864 -2775.25 0 2364.08 -2771.1 0 
970.831 -2754.14 0 2367.71 -2754.1 0 956.835 -2737.14 0 
961.864 -2747.38 0 2367.9 -2753.18 0 2371.34 -2737.1 0 
948.665 -2720.13 0 2374.96 -2720.1 0 940.706 -2703.13 0 
2378.59 -2703.09 0 932.95 -2686.13 0 2382.22 -2686.09 0 
925.388 -2669.13 0 2385.85 -2669.09 0 918.933 -2652.13 0 
924.868 -2667.95 0 2389.48 -2652.09 0 912.554 -2635.13 0 
2393.11 -2635.09 0 906.174 -2618.13 0 2396.73 -2618.09 0 
899.794 -2601.13 0 2400.36 -2601.09 0 893.415 -2584.13 0 
2403.99 -2584.09 0 887.035 -2567.13 0 887.873 -2569.36 0 
2404.91 -2579.77 0 2407.62 -2567.09 0 880.656 -2550.13 0 
2411.25 -2550.08 0 874.276 -2533.13 0 2414.88 -2533.08 0 
867.897 -2516.12 0 2418.51 -2516.08 0 861.517 -2499.12 0 
2422.13 -2499.08 0 855.137 -2482.12 0 2425.76 -2482.08 0 
848.758 -2465.12 0 850.878 -2470.77 0 2429.39 -2465.08 0 
842.378 -2448.12 0 2433.02 -2448.08 0 835.999 -2431.12 0 
2436.65 -2431.08 0 829.619 -2414.12 0 2440.28 -2414.08 0 
823.24 -2397.12 0 2441.92 -2406.36 0 2443.91 -2397.07 0 
816.86 -2380.12 0 2447.53 -2380.07 0 810.48 -2363.12 0 
813.882 -2372.18 0 2451.16 -2363.07 0 804.101 -2346.12 0 
2454.79 -2346.07 0 797.721 -2329.12 0 2458.42 -2329.07 0 
791.342 -2312.11 0 2462.05 -2312.07 0 784.962 -2295.11 0 
2465.68 -2295.07 0 778.583 -2278.11 0 2469.31 -2278.07 0 
772.203 -2261.11 0 776.887 -2273.6 0 2472.93 -2261.07 0 
765.823 -2244.11 0 2476.56 -2244.06 0 759.444 -2227.11 0 
2478.94 -2232.95 0 2480.19 -2227.06 0 753.064 -2210.11 0 
2487.32 -2210.06 0 746.685 -2193.11 0 2499.93 -2193.06 0 
740.305 -2176.11 0 2512.56 -2176.06 0 734.525 -2159.11 0 
739.892 -2175.01 0 2515.94 -2171.51 0 2525.19 -2159.06 0 
732.267 -2142.11 0 2537.81 -2142.06 0 730.049 -2125.11 0 
2550.44 -2125.06 0 727.831 -2108.1 0 2550.75 -2108.05 0 
725.614 -2091.1 0 2550.13 -2091.05 0 723.396 -2074.1 0 
2549.61 -2074.05 0 721.178 -2057.1 0 2548.66 -2057.05 0 
718.96 -2040.1 0 2547.71 -2040.05 0 716.742 -2023.1 0 
2546.77 -2023.05 0 714.525 -2006.1 0 2545.82 -2006.05 0 
712.307 -1989.1 0 2544.87 -1989.05 0 710.089 -1972.1 0 
2543.92 -1972.05 0 707.871 -1955.1 0 2542.97 -1955.05 0 
705.653 -1938.09 0 2542.03 -1938.05 0 703.435 -1921.09 0 
2541.08 -1921.04 0 701.218 -1904.09 0 702.906 -1917.04 0 
2540.13 -1904.04 0 699 -1887.09 0 2539.18 -1887.04 0 
696.782 -1870.09 0 2538.24 -1870.04 0 694.564 -1853.09 0 
2537.29 -1853.04 0 692.346 -1836.09 0 2536.34 -1836.04 0 
690.128 -1819.09 0 2535.39 -1819.04 0 687.911 -1802.09 0 
2534.44 -1802.04 0 685.693 -1785.09 0 2533.5 -1785.04 0 
683.462 -1768.09 0 2532.55 -1768.04 0 681.877 -1751.08 0 
2531.6 -1751.03 0 680.382 -1734.08 0 2530.65 -1734.03 0 
678.969 -1717.08 0 2529.71 -1717.03 0 676.297 -1700.08 0 
2528.76 -1700.03 0 673.754 -1683.08 0 2527.81 -1683.03 0 
671.647 -1666.08 0 2526.86 -1666.03 0 670.103 -1649.08 0 
2525.92 -1649.03 0 667.925 -1632.08 0 2524.97 -1632.03 0 
663.524 -1615.08 0 665.923 -1622.7 0 2524.02 -1615.03 0 
-481.107 -1605.95 0 -496.551 -1598.11 0 -444.107 -1607.37 0 
-413.3 -1598.11 0 658.973 -1598.08 0 2523.07 -1598.03 0 
-518.107 -1587.16 0 -530.035 -1581.11 0 -407.105 -1596.24 0 
-370.103 -1585.11 0 -356.773 -1581.1 0 655.274 -1581.08 0 
2522.12 -1581.02 0 -555.107 -1568.38 0 -563.519 -1564.11 0 
-333.102 -1573.98 0 -300.245 -1564.1 0 652.207 -1564.07 0 
2522.4 -1564.02 0 -592.107 -1549.59 0 -597.003 -1547.11 0 
-296.1 -1562.85 0 -259.098 -1551.72 0 -243.718 -1547.1 0 
649.624 -1547.07 0 2523.52 -1547.02 0 -629.107 -1530.81 0 
-630.487 -1530.11 0 -222.097 -1540.59 0 -187.19 -1530.09 0 
646.141 -1530.07 0 2524.69 -1530.02 0 -663.971 -1513.11 0 
-185.095 -1529.46 0 -148.093 -1518.34 0 -130.663 -1513.09 0 
642.51 -1513.07 0 1300.8 -1513.05 0 1331.95 -1526.84 0 
1368.95 -1527.4 0 1405.95 -1527.82 0 1442.95 -1528.24 0 
1479.95 -1528.66 0 1516.95 -1529.08 0 1553.95 -1529.5 0 
1590.95 -1527.49 0 1607.3 -1513.05 0 2525.86 -1513.02 0 
-666.107 -1512.02 0 -697.455 -1496.11 0 -111.092 -1507.21 0 
-74.4641 -1496.09 0 638.879 -1496.07 0 1266.77 -1496.05 0 
1294.95 -1510.13 0 1626.54 -1496.04 0 2527.03 -1496.02 0 
-703.107 -1493.24 0 -730.939 -1479.11 0 -74.09 -1495.98 0 
-57.8032 -1479.09 0 635.249 -1479.07 0 1244.87 -1479.05 0 
1257.95 -1491.64 0 1627.96 -1494.79 0 1645.78 -1479.04 0 
2528.2 -1479.02 0 -740.107 -1472.45 0 -748.271 -1462.11 0 
-37.0871 -1463.61 0 -36.082 -1462.09 0 631.618 -1462.07 0 
1223.94 -1462.05 0 1664.96 -1462.09 0 1665.02 -1462.04 0 
2529.37 -1462.02 0 -760.036 -1445.11 0 -23.7814 -1445.09 0 
627.987 -1445.07 0 628.932 -1449.49 0 1207.22 -1445.05 0 
1220.95 -1459.89 0 1685.12 -1445.04 0 2530.54 -1445.02 0 
-771.802 -1428.1 0 -11.4113 -1428.08 0 624.356 -1428.07 0 
1191.49 -1428.05 0 1701.96 -1430.49 0 1705.08 -1428.04 0 
2531.71 -1428.02 0 -777.105 -1420.44 0 -783.567 -1411.1 0 
-0.0830842 -1412.51 0 0.958796 -1411.08 0 620.726 -1411.07 0 
1175.76 -1411.05 0 1183.95 -1419.9 0 1726.69 -1411.04 0 
2532.88 -1411.01 0 -795.332 -1394.1 0 13.3288 -1394.08 0 
617.095 -1394.07 0 1160.04 -1394.05 0 1738.96 -1401.39 0 
1748.31 -1394.03 0 2534.05 -1394.01 0 -807.097 -1377.1 0 
25.699 -1377.08 0 613.464 -1377.06 0 1144.31 -1377.05 0 
1146.95 -1379.91 0 1769.93 -1377.03 0 2535.22 -1377.01 0 
-814.102 -1366.98 0 -818.863 -1360.1 0 36.9209 -1361.66 0 
38.069 -1360.08 0 609.833 -1360.06 0 1127.81 -1360.05 0 
1775.97 -1370.42 0 1780.81 -1360.03 0 2533.71 -1360.01 0 
-830.628 -1343.1 0 50.4391 -1343.08 0 606.203 -1343.06 0 
1107.83 -1343.05 0 1109.95 -1344.56 0 1787.67 -1343.03 0 
2532.43 -1343.01 0 -842.393 -1326.1 0 62.8091 -1326.08 0 
602.572 -1326.06 0 1084.01 -1326.05 0 1794.52 -1326.03 0 
2530.79 -1326.01 0 -851.1 -1313.52 0 -854.158 -1309.1 0 
73.9249 -1310.8 0 75.1793 -1309.07 0 597.237 -1309.06 0 
1060.2 -1309.05 0 1072.95 -1318.15 0 1801.38 -1309.03 0 
2527.44 -1309.01 0 -865.924 -1292.1 0 87.5493 -1292.07 0 
587.979 -1292.06 0 591.94 -1299.33 0 1036.38 -1292.05 0 
1808.23 -1292.03 0 2524.09 -1292.01 0 -877.689 -1275.1 0 
99.9194 -1275.07 0 579.987 -1275.06 0 1012.57 -1275.05 0 
1035.95 -1291.74 0 1812.97 -1280.27 0 1815.09 -1275.03 0 
2520.74 -1275.01 0 -888.098 -1260.06 0 -889.454 -1258.1 0 
110.929 -1259.94 0 112.289 -1258.07 0 573.514 -1258.06 0 
992.891 -1258.05 0 998.953 -1265.33 0 1822.29 -1258.02 0 
2517.38 -1258.01 0 -901.219 -1241.1 0 124.66 -1241.07 0 
568.256 -1241.06 0 978.692 -1241.05 0 1833.57 -1241.02 0 
2515.99 -1250.96 0 2514.03 -1241.01 0 -912.985 -1224.1 0 
137.03 -1224.07 0 564.446 -1224.06 0 964.422 -1224.05 0 
1844.89 -1224.02 0 2510.68 -1224 0 -924.75 -1207.1 0 
144.729 -1207.07 0 560.636 -1207.06 0 952.501 -1207.05 0 
961.954 -1221.11 0 1849.98 -1216.38 0 1856.21 -1207.02 0 
2507.33 -1207 0 -925.096 -1206.6 0 -936.515 -1190.1 0 
147.773 -1190.07 0 556.826 -1190.06 0 941.078 -1190.04 0 
1867.53 -1190.02 0 2503.98 -1190 0 -948.281 -1173.09 0 
147.934 -1188.96 0 149.767 -1173.06 0 552.987 -1173.05 0 
554.945 -1181.66 0 929.655 -1173.04 0 1878.85 -1173.02 0 
2500.7 -1173 0 -960.046 -1156.09 0 151.728 -1156.06 0 
549.125 -1156.05 0 919.038 -1156.04 0 924.956 -1166 0 
1886.98 -1160.8 0 1890.09 -1156.02 0 2498.73 -1156 0 
-962.094 -1153.13 0 -971.811 -1139.09 0 153.688 -1139.06 0 
545.269 -1139.05 0 910.325 -1139.04 0 1900.07 -1139.02 0 
2497.83 -1139 0 -985.666 -1122.09 0 155.649 -1122.06 0 
541.42 -1122.05 0 901.612 -1122.04 0 1908.66 -1122.01 0 
2497.46 -1122 0 -999.092 -1110.09 0 -1004.71 -1105.09 0 
157.609 -1105.06 0 537.578 -1105.05 0 892.899 -1105.04 0 
1916.12 -1105.01 0 2497.09 -1105 0 -1018.15 -1088.09 0 
159.569 -1088.06 0 533.742 -1088.05 0 884.185 -1088.04 0 
887.96 -1095.4 0 1922.62 -1088.01 0 2496.71 -1088 0 
-1024.84 -1071.09 0 161.593 -1071.06 0 529.913 -1071.05 0 
875.472 -1071.04 0 1923.99 -1084.33 0 1928.92 -1071.01 0 
2496.34 -1071 0 -1027.83 -1054.09 0 168.443 -1054.06 0 
526.091 -1054.05 0 865.838 -1054.04 0 1935.22 -1054.01 0 
2495.96 -1053.99 0 -1030.1 -1037.09 0 175.35 -1037.06 0 
522.275 -1037.05 0 852.361 -1037.04 0 1941.52 -1037.01 0 
2495.59 -1036.99 0 -1032.37 -1020.09 0 182.257 -1020.06 0 
518.465 -1020.05 0 838.254 -1020.04 0 850.962 -1035.35 0 
[...]
POINT_DATA 7052
SCALARS Pressure double
LOOKUP_TABLE default
3.0932710339 3.0932710339 3.0932710339 3.0932710339 3.0932710339 3.0932710339 3.0932710339 3.0932710339 3.0932710339 
3.0932710339 3.0932710339 3.0932710339 3.0932710339 3.0932710339 3.0932710339 3.0932710339 3.0932710339 3.0932710339 
3.0932710339 3.0932710339 3.0932710339 3.0932710339 3.0932710339 3.0932710339 3.0932710339 3.0932710339 3.0932710339 
3.0932710339 3.0932710339 3.0932710339 3.0932710339 3.0932710339 3.0932710339 3.0932710339 3.0932710339 3.0932710339 
3.0932710339 3.0932710339 3.0932710339 3.0932710339 3.0932710339 3.0932710339 3.0932710339 3.0932710339 3.0932710339 
3.0932710339 3.0932710339 3.0932710339 3.0932710339 3.0932710339 3.0932710339 3.0932710339 3.0932710339 3.0932710339 
3.0932710339 3.0932710339 3.0932710339 3.0932710339 3.0932710339 3.0932710339 3.0932710339 3.0932710339 3.0932710339 
3.0932710339 3.0932710339 3.0932710339 3.0932710339 3.0932710339 3.0932710339 3.0932710339 3.0932710339 3.0932710339 
3.0932710339 3.0932710339 3.0932710339 3.0932710339 3.0932710339 3.0932710339 3.0932710339 3.0932710339 3.0932710339 
3.0932710339 3.0932710339 3.0932710339 3.0932710339 3.0932710339 3.0932710339 3.0932710339 3.0932710339 3.0932710339 
3.0932710339 3.0932710339 3.0932710339 3.0932710339 3.0932710339 3.0932710339 3.0932710339 3.0932710339 3.0932710339 
3.0932710339 3.0932710339 3.0932710339 3.0932710339 3.0932710339 3.0932710339 3.0932710339 3.0932710339 3.0932710339 
3.0932710339 3.0932710339 3.0932710339 3.0932710339 3.0932710339 3.0932710339 3.0932710339 3.0932710339 3.0932710339 
3.0932710339 3.0932710339 3.0932710339 3.0932710339 3.0932710339 3.0932710339 3.0932710339 3.0932710339 3.0932710339 
3.0932710339 3.0932710339 3.0932710339 3.0932710339 3.0932710339 3.0932710339 3.0932710339 3.0932710339 3.0932710339 
3.0932710339 3.0932710339 3.0932710339 3.0932710339 3.0932710339 3.0932710339 3.0932710339 3.0932710339 3.0932710339 
3.0932710339 3.0932710339 3.0932710339 3.0932710339 3.0932710339 3.0932710339 3.0932710339 3.0932710339 3.0932710339 
3.0932710339 3.0932710339 3.0932710339 3.0932710339 3.0932710339 3.0932710339 3.0932710339 3.0932710339 3.0932710339 
3.0932710339 3.0932710339 3.0932710339 3.0932710339 3.0932710339 3.0932710339 3.0932710339 3.0932710339 3.0932710339 
3.0932710339 3.0932710339 3.0932710339 3.0932710339 3.0932710339 3.0932710339 3.0932710339 3.0932710339 3.0932710339 
3.0932710339 3.0932710339 3.0932710339 3.0932710339 3.0932710339 3.0932710339 3.0932710339 3.0932710339 3.0932710339 
3.0932710339 3.0932710339 3.0932710339 3.0932710339 3.0932710339 3.0932710339 3.0932710339 3.0932710339 3.0932710339 
3.0932710339 3.0932710339 3.0932710339 3.0932710339 3.0932710339 3.0932710339 3.0932710339 3.0932710339 3.0932710339 
3.0932710339 3.0932710339 3.0932710339 3.0932710339 3.0932710339 3.0932710339 3.0932710339 3.0932710339 3.0932710339 
3.0932710339 3.0932710339 3.0932710339 3.0932710339 3.0932710339 3.0932710339 3.0932710339 3.0932710339 3.0932710339 
3.0932710339 3.0932710339 3.0932710339 3.0932710339 3.0932710339 3.0932710339 3.0932710339 3.0932710339 3.0932710339 
3.0932710339 3.0932710339 3.0932710339 3.0932710339 3.0932710339 3.0932710339 3.0932710339 3.0932710339 3.0932710339 
3.0932710339 3.0932710339 3.0932710339 3.0932710339 3.0932710339 3.0932710339 3.0786768432 3.0786768432 3.0786768432 
3.0786768432 3.0932710339 3.0932710339 3.0786768432 3.0786768432 3.0786768432 3.0786768432 3.0786768432 3.0932710339 
3.0932710339 3.0786768432 3.0786768432 3.0786768432 3.0786768432 3.0932710339 3.0932710339 3.0786768432 3.0786768432 
3.0786768432 3.0786768432 3.0786768432 3.0932710339 3.0932710339 3.0786768432 3.0786768432 3.0786768432 3.0786768432 
3.0932710339 3.0932710339 3.0786768432 3.0786768432 3.0786768432 3.0786768432 3.0932710339 3.1078652246 3.1078652246 
3.1078652246 3.1078652246 3.1078652246 3.1078652246 3.1078652246 3.1078652246 3.1078652246 3.1078652246 3.0932710339 
3.0786768432 3.0786768432 3.0786768432 3.0786768432 3.0932710339 3.1078652246 3.1078652246 3.1078652246 3.0932710339 
3.0786768432 3.0786768432 3.0786768432 3.0786768432 3.0932710339 3.1078652246 3.1078652246 3.1078652246 3.1078652246 
3.0932710339 3.0786768432 3.0786768432 3.0786768432 3.0786768432 3.0932710339 3.1078652246 3.1078652246 3.1078652246 
3.0932710339 3.0786768432 3.0786768432 3.0932710339 3.0932710339 3.1078652246 3.1078652246 3.1078652246 3.0932710339 
3.0786768432 3.0786768432 3.0932710339 3.1078652246 3.1078652246 3.1078652246 3.0932710339 3.0786768432 3.0786768432 
3.0786768432 3.0786768432 3.0932710339 3.1078652246 3.1078652246 3.1078652246 3.0932710339 3.0786768432 3.0786768432 
3.0932710339 3.1078652246 3.1078652246 3.1078652246 3.0932710339 3.0786768432 3.0786768432 3.0932710339 3.1078652246 
3.1078652246 3.1078652246 3.0932710339 3.0786768432 3.0786768432 3.0786768432 3.0786768432 3.0932710339 3.1078652246 
3.1078652246 3.1078652246 3.0932710339 3.0786768432 3.0786768432 3.0932710339 3.1078652246 3.1078652246 3.1078652246 
3.0932710339 3.0786768432 3.0786768432 3.0932710339 3.1078652246 3.1078652246 3.0932710339 3.0786768432 3.0786768432 
3.0786768432 3.0786768432 3.0932710339 3.1078652246 3.1078652246 3.1078652246 3.0932710339 3.0786768432 3.0786768432 
3.0932710339 3.0932710339 3.1078652246 3.1078652246 3.0932710339 3.0786768432 3.0786768432 3.0932710339 3.1078652246 
3.1078652246 3.1078652246 3.1078652246 3.0932710339 3.0786768432 3.0786768432 3.0786768432 3.0786768432 3.0932710339 
3.1078652246 3.1078652246 3.1078652246 3.0932710339 3.0786768432 3.0786768432 3.0932710339 3.1078652246 3.1078652246 
3.0932710339 3.0932710339 3.0786768432 3.0786768432 3.0932710339 3.1078652246 3.1078652246 3.0932710339 3.0786768432 
3.0786768432 3.0932710339 3.1078652246 3.1078652246 3.1078652246 3.1078652246 3.0932710339 3.0786768432 3.0786768432 
3.0786768432 3.0932710339 3.1078652246 3.1078652246 3.0932710339 3.0786768432 3.0786768432 3.0786768432 3.0932710339 
3.0932710339 3.1078652246 3.1078652246 3.0932710339 3.0786768432 3.0786768432 3.0932710339 3.1078652246 3.1078652246 
3.1078652246 3.1078652246 3.0932710339 3.0786768432 3.0786768432 3.0786768432 3.0932710339 3.1078652246 3.1078652246 
3.0932710339 3.0786768432 3.0786768432 3.0932710339 3.1078652246 3.1078652246 3.0932710339 3.0786768432 3.0786768432 
3.0786768432 3.0932710339 3.1078652246 3.1078652246 3.0932710339 3.0786768432 3.0786768432 3.0932710339 3.1078652246 
3.1078652246 3.1078652246 3.0932710339 3.0786768432 3.0786768432 3.0932710339 3.1078652246 3.1078652246 3.1078652246 
3.0932710339 3.0786768432 3.0786768432 3.0932710339 3.1078652246 3.1078652246 3.0932710339 3.0786768432 3.0786768432 
3.0932710339 3.1078652246 3.1078652246 3.0932710339 3.0786768432 3.0786768432 3.0932710339 3.1078652246 3.1078652246 
3.1078652246 3.0932710339 3.0786768432 3.0786768432 3.0786768432 3.0932710339 3.0932710339 3.1078652246 3.1078652246 
3.0932710339 3.0786768432 3.0786768432 3.0786768432 3.0932710339 3.1078652246 3.1078652246 3.1078652246 3.0932710339 
3.0786768432 3.0786768432 3.0932710339 3.1078652246 3.1078652246 3.1078652246 3.0932710339 3.0786768432 3.0786768432 
3.0932710339 3.1078652246 3.1078652246 3.0932710339 3.0786768432 3.0786768432 3.0932710339 3.1078652246 3.1078652246 
3.1078652246 3.0932710339 3.0786768432 3.0786768432 3.0932710339 3.1078652246 3.1078652246 3.0932710339 3.0786768432 
3.0786768432 3.0932710339 3.1078652246 3.1078652246 3.0932710339 3.0786768432 3.0786768432 3.0932710339 3.1078652246 
3.1224594153 3.1224594153 3.1224594153 3.1078652246 3.1078652246 3.0932710339 3.0786768432 3.0786768432 3.0932710339 
3.0932710339 3.1078652246 3.1078652246 3.1224594153 3.1224594153 3.1224594153 3.1224594153 3.1224594153 3.1224594153 
3.1078652246 3.0932710339 3.0932710339 3.0786768432 3.0786768432 3.0932710339 3.1078652246 3.1224594153 3.1224594153 
3.1224594153 3.1224594153 3.1224594153 3.1078652246 3.0932710339 3.0786768432 3.0786768432 3.0932710339 3.1078652246 
3.1224594153 3.1224594153 3.1224594153 3.1224594153 3.1224594153 3.1078652246 3.0932710339 3.0786768432 3.0786768432 
3.0932710339 3.1078652246 3.1224594153 3.1224594153 3.1224594153 3.1078652246 3.0932710339 3.0786768432 3.0786768432 
3.0786768432 3.0932710339 3.1078652246 3.1078652246 3.1224594153 3.1224594153 3.1224594153 3.1078652246 3.0932710339 
3.0786768432 3.0786768432 3.0932710339 3.1078652246 3.1224594153 3.1224594153 3.1224594153 3.1078652246 3.0932710339 
3.0786768432 3.0786768432 3.0786768432 3.0786768432 3.0786768432 3.0786768432 3.0932710339 3.1078652246 3.1224594153 
3.1224594153 3.1224594153 3.1078652246 3.1078652246 3.0932710339 3.0786768432 3.0786768432 3.0786768432 3.0786768432 
3.0640826525 3.0640826525 3.0640826525 3.0640826525 3.0640826525 3.0640826525 3.0640826525 3.0786768432 3.0932710339 
3.1078652246 3.1078652246 3.1224594153 3.1224594153 3.1224594153 3.1078652246 3.0932710339 3.0786768432 3.0786768432 
3.0786768432 3.0786768432 3.0786768432 3.0786768432 3.0640826525 3.0640826525 3.0640826525 3.0640826525 3.0786768432 
3.0932710339 3.0932710339 3.1078652246 3.1224594153 3.1224594153 3.1224594153 3.1078652246 3.0932710339 3.0786768432 
3.0786768432 3.0786768432 3.0786768432 3.0786768432 3.0786768432 3.0640826525 3.0640826525 3.0640826525 3.0786768432 
3.0932710339 3.1078652246 3.1224594153 3.1224594153 3.1224594153 3.1078652246 3.0932710339 3.0786768432 3.0786768432 
3.0786768432 3.0786768432 3.0786768432 3.0786768432 3.0640826525 3.0640826525 3.0640826525 3.0640826525 3.0786768432 
3.0932710339 3.1078652246 3.1224594153 3.1224594153 3.1224594153 3.1078652246 3.0932710339 3.0786768432 3.0786768432 
3.0786768432 3.0786768432 3.0786768432 3.0640826525 3.0640826525 3.0786768432 3.0932710339 3.1078652246 3.1078652246 
3.1224594153 3.1224594153 3.1224594153 3.1078652246 3.0932710339 3.0786768432 3.0786768432 3.0786768432 3.0786768432 
3.0640826525 3.0640826525 3.0640826525 3.0640826525 3.0786768432 3.0932710339 3.1078652246 3.1224594153 3.1224594153 
3.1078652246 3.0932710339 3.0786768432 3.0786768432 3.0786768432 3.0786768432 3.0640826525 3.0640826525 3.0786768432 
3.0932710339 3.1078652246 3.1224594153 3.1224594153 3.1224594153 3.1078652246 3.0932710339 3.0786768432 3.0786768432 
3.0786768432 3.0786768432 3.0640826525 3.0640826525 3.0786768432 3.0932710339 3.1078652246 3.1224594153 3.1224594153 
3.1224594153 3.1078652246 3.1078652246 3.0932710339 3.0786768432 3.0786768432 3.0786768432 3.0786768432 3.0640826525 
3.0640826525 3.0640826525 3.0640826525 3.0786768432 3.0932710339 3.1078652246 3.1224594153 3.1224594153 3.1224594153 
3.1078652246 3.0932710339 3.0786768432 3.0786768432 3.0786768432 3.0786768432 3.0640826525 3.0640826525 3.0786768432 
3.0932710339 3.1078652246 3.1224594153 3.1224594153 3.1078652246 3.0932710339 3.0786768432 3.0786768432 3.0786768432 
3.0640826525 3.0640826525 3.0640826525 3.0640826525 3.0786768432 3.0932710339 3.0932710339 3.1078652246 3.1078652246 
3.1224594153 3.1224594153 3.1224594153 3.1078652246 3.0932710339 3.0786768432 3.0786768432 3.0786768432 3.0786768432 
3.0640826525 3.0640826525 3.0786768432 3.0932710339 3.1078652246 3.1224594153 3.1224594153 3.1224594153 3.1078652246 
3.0932710339 3.0786768432 3.0786768432 3.0786768432 3.0640826525 3.0640826525 3.0786768432 3.0932710339 3.1078652246 
3.1224594153 3.1224594153 3.1078652246 3.0932710339 3.0786768432 3.0786768432 3.0786768432 3.0640826525 3.0640826525 
3.0786768432 3.0932710339 3.1078652246 3.1078652246 3.1224594153 3.1224594153 3.1224594153 3.1078652246 3.0932710339 
3.0786768432 3.0786768432 3.0786768432 3.0786768432 3.0640826525 3.0640826525 3.0786768432 3.0932710339 3.1078652246 
3.1224594153 3.137053606 3.137053606 3.137053606 3.137053606 3.1224594153 3.1224594153 3.1078652246 3.0932710339 
3.0786768432 3.0786768432 3.0786768432 3.0786768432 3.0640826525 3.0640826525 3.0640826525 3.0640826525 3.0786768432 
3.0932710339 3.1078652246 3.1224594153 3.1224594153 3.137053606 3.137053606 3.137053606 3.137053606 3.1224594153 
3.1078652246 3.0932710339 3.0786768432 3.0786768432 3.0786768432 3.0640826525 3.0640826525 3.0786768432 3.0932710339 
3.1078652246 3.1078652246 3.1224594153 3.137053606 3.137053606 3.137053606 3.137053606 3.1224594153 3.1078652246 
3.0932710339 3.0786768432 3.0786768432 3.0786768432 3.0786768432 3.0786768432 3.0640826525 3.0640826525 3.0786768432 
3.0932710339 3.1078652246 3.1224594153 3.137053606 3.137053606 3.137053606 3.1224594153 3.1078652246 3.0932710339 
3.0786768432 3.0786768432 3.0786768432 3.0640826525 3.0494884618 3.0494884618 3.0494884618 3.0640826525 3.0786768432 
3.0932710339 3.0932710339 3.1078652246 3.1224594153 3.1224594153 3.137053606 3.137053606 3.1224594153 3.1078652246 
3.0932710339 3.0786768432 3.0786768432 3.0786768432 3.0640826525 3.0494884618 3.0494884618 3.0494884618 3.0494884618 
3.0494884618 3.0640826525 3.0786768432 3.0932710339 3.1078652246 3.1224594153 3.137053606 3.137053606 3.137053606 
3.137053606 3.1224594153 3.1078652246 3.0932710339 3.0786768432 3.0786768432 3.0786768432 3.0786768432 3.0640826525 
3.0494884618 3.0494884618 3.0494884618 3.0640826525 3.0786768432 3.0932710339 3.1078652246 3.1078652246 3.1224594153 
3.137053606 3.137053606 3.137053606 3.1224594153 3.1078652246 3.0932710339 3.0932710339 3.0786768432 3.0786768432 
3.0786768432 3.0640826525 3.0640826525 3.0494884618 3.0494884618 3.0494884618 3.0494884618 3.0640826525 3.0786768432 
3.0932710339 3.1078652246 3.1224594153 3.1224594153 3.137053606 3.137053606 3.137053606 3.1224594153 3.1078652246 
3.0932710339 3.0786768432 3.0786768432 3.0786768432 3.0640826525 3.0494884618 3.0494884618 3.0640826525 3.0786768432 
3.0932710339 3.1078652246 3.1224594153 3.137053606 3.137053606 3.137053606 3.1224594153 3.1078652246 3.0932710339 
3.0786768432 3.0786768432 3.0786768432 3.0786768432 3.0786768432 3.0640826525 3.0494884618 3.0494884618 3.0494884618 
3.0640826525 3.0786768432 3.0932710339 3.0932710339 3.1078652246 3.1078652246 3.1224594153 3.137053606 3.137053606 
3.137053606 3.137053606 3.1224594153 3.1224594153 3.1078652246 3.0932710339 3.0786768432 3.0786768432 3.0786768432 
3.0640826525 3.0494884618 3.0494884618 3.0494884618 3.0640826525 3.0786768432 3.0932710339 3.1078652246 3.1224594153 
3.1224594153 3.137053606 3.137053606 3.1224594153 3.1078652246 3.0932710339 3.0786768432 3.0786768432 3.0786768432 
3.0640826525 3.0494884618 3.0494884618 3.0494884618 3.0640826525 3.0786768432 3.0932710339 3.1078652246 3.1224594153 
3.137053606 3.137053606 3.1224594153 3.1078652246 3.0932710339 3.0786768432 3.0786768432 3.0786768432 3.0786768432 
3.0640826525 3.0494884618 3.0494884618 3.0640826525 3.0786768432 3.0932710339 3.1078652246 3.1224594153 3.137053606 
3.137053606 3.1224594153 3.1078652246 3.1078652246 3.0932710339 3.0786768432 3.0786768432 3.0786768432 3.0640826525 
3.0494884618 3.0494884618 3.0494884618 3.0640826525 3.0786768432 3.0932710339 3.1078652246 3.1078652246 3.1224594153 
3.137053606 3.137053606 3.137053606 3.137053606 3.1224594153 3.1078652246 3.1078652246 3.0932710339 3.0786768432 
3.0786768432 3.0786768432 3.0786768432 3.0786768432 3.0640826525 3.0494884618 3.0494884618 3.0640826525 3.0786768432 
3.0932710339 3.1078652246 3.1224594153 3.1224594153 3.137053606 3.137053606 3.1224594153 3.1078652246 3.0932710339 
3.0786768432 3.0786768432 3.0786768432 3.0786768432 3.0640826525 3.0640826525 3.0494884618 3.0348942711 3.0348942711 
3.0348942711 3.0348942711 3.0494884618 3.0640826525 3.0786768432 3.0786768432 3.0932710339 3.0932710339 3.1078652246 
3.1224594153 3.137053606 3.137053606 3.1224594153 3.1078652246 3.0932710339 3.0786768432 3.0640826525 3.0640826525 
3.0640826525 3.0786768432 3.0786768432 3.0786768432 3.0640826525 3.0494884618 3.0348942711 3.0348942711 3.0348942711 
3.0348942711 3.0494884618 3.0494884618 3.0640826525 3.0786768432 3.0932710339 3.1078652246 3.1224594153 3.137053606 
3.137053606 3.137053606 3.137053606 3.1224594153 3.1078652246 3.0932710339 3.0786768432 3.0640826525 3.0640826525 
3.0640826525 3.0640826525 3.0640826525 3.0786768432 3.0786768432 3.0786768432 3.0786768432 3.0640826525 3.0494884618 
3.0348942711 3.0348942711 3.0348942711 3.0348942711 3.0494884618 3.0640826525 3.0786768432 3.0932710339 3.1078652246 
3.1224594153 3.137053606 3.137053606 3.1224594153 3.1224594153 3.1078652246 3.0932710339 3.0786768432 3.0640826525 
3.0640826525 3.0640826525 3.0786768432 3.0786768432 3.0786768432 3.0786768432 3.0640826525 3.0494884618 3.0348942711 
3.0348942711 3.0494884618 3.0640826525 3.0640826525 3.0786768432 3.0932710339 3.1078652246 3.1224594153 3.137053606 
3.137053606 3.1224594153 3.1078652246 3.0932710339 3.0786768432 3.0786768432 3.0640826525 3.0640826525 3.0640826525 
3.0640826525 3.0786768432 3.0786768432 3.0786768432 3.0786768432 3.0786768432 3.0640826525 3.0494884618 3.0348942711 
3.0348942711 3.0494884618 3.0640826525 3.0640826525 3.0786768432 3.0932710339 3.1078652246 3.1078652246 3.1224594153 
3.137053606 3.137053606 3.137053606 3.137053606 3.1224594153 3.1078652246 3.0932710339 3.0932710339 3.0786768432 
3.0640826525 3.0640826525 3.0640826525 3.0786768432 3.0786768432 3.0786768432 3.0640826525 3.0494884618 3.0494884618 
3.0348942711 3.0348942711 3.0203000804 3.0203000804 3.0203000804 3.0203000804 3.0348942711 3.0348942711 3.0494884618 
3.0640826525 3.0786768432 3.0786768432 3.0932710339 3.1078652246 3.1224594153 2.9619233175 2.9619233175 2.9765175082 
2.9765175082 2.991111699 2.991111699 3.0057058897 3.0057058897 3.0203000804 3.0203000804 3.0348942711 3.0348942711 
3.0494884618 3.0494884618 3.0640826525 3.0640826525 3.0786768432 3.0786768432 3.0932710339 3.0932710339 3.1078652246 
3.1078652246 3.1224594153 3.1224594153 3.137053606 2.9619233175 2.9765175082 2.991111699 3.0057058897 3.0203000804 
3.0348942711 3.0494884618 3.0640826525 3.0786768432 3.0932710339 3.1078652246 3.1224594153 3.137053606 2.9619233175 
2.9765175082 2.991111699 3.0057058897 3.0203000804 3.0348942711 3.0494884618 3.0640826525 3.0786768432 3.0932710339 
3.1078652246 3.1224594153 3.137053606 2.9619233175 2.9765175082 2.991111699 3.0057058897 3.0203000804 3.0348942711 
3.0494884618 3.0640826525 3.0786768432 3.0932710339 3.1078652246 3.1224594153 3.137053606 2.9619233175 2.9765175082 
2.991111699 3.0057058897 3.0203000804 3.0348942711 3.0494884618 3.0640826525 3.0786768432 3.0932710339 3.1078652246 
3.1224594153 3.137053606 2.9619233175 2.9765175082 2.991111699 3.0057058897 3.0203000804 3.0348942711 3.0494884618 
3.0640826525 3.0786768432 3.0932710339 3.1078652246 3.1224594153 3.137053606 2.9619233175 2.9765175082 2.991111699 
3.0057058897 3.0203000804 3.0348942711 3.0494884618 3.0640826525 3.0786768432 3.0932710339 3.1078652246 3.1224594153 
3.137053606 2.9619233175 2.9765175082 2.991111699 3.0057058897 3.0203000804 3.0348942711 3.0494884618 3.0640826525 
3.0786768432 3.0932710339 3.1078652246 3.1224594153 3.137053606 2.9619233175 2.9765175082 2.991111699 3.0057058897 
3.0203000804 3.0348942711 3.0494884618 3.0640826525 3.0786768432 3.0932710339 3.1078652246 3.1224594153 3.137053606 
2.9619233175 2.9765175082 2.991111699 3.0057058897 3.0203000804 3.0348942711 3.0494884618 3.0640826525 3.0786768432 
3.0932710339 3.1078652246 3.1224594153 3.137053606 3.137053606 3.1224594153 3.1078652246 3.0932710339 3.0786768432 
3.0640826525 3.0640826525 3.0786768432 3.0786768432 3.0786768432 3.0640826525 3.0494884618 3.0348942711 3.0203000804 
3.0203000804 3.0203000804 3.0348942711 3.0494884618 3.0640826525 3.0786768432 3.0932710339 3.1078652246 2.9619233175 
2.9619233175 2.9765175082 2.9765175082 2.991111699 2.991111699 3.0057058897 3.0057058897 3.0203000804 3.0203000804 
3.0348942711 3.0348942711 3.0494884618 3.0494884618 3.0640826525 3.0640826525 3.0786768432 3.0786768432 3.0932710339 
3.0932710339 3.1078652246 3.1078652246 2.9619233175 2.9765175082 2.991111699 3.0057058897 3.0203000804 3.0348942711 
3.0494884618 3.0640826525 3.0786768432 3.0932710339 3.1078652246 2.9619233175 2.9765175082 2.991111699 3.0057058897 