# vtk DataFile Version 4.2
vtk output
ASCII
DATASET UNSTRUCTURED_GRID
POINTS 1740 double
2144.07 -94.44003 0 2911 0 0 16.54298 -37.82236 0 
5.09149 -21.30132 0 1.27433 -10.75385 0 0 0 0 
2.54575 15.14293 0 6.36291 23.76126 0 14.00014 34.89063 0 
30.50239 50.70793 0 33.39435 -52.93479 0 2050.91 -103.7862 0 
60.1465 -69.72165 0 88.83633 -83.2817 0 118.7656 -94.71113 0 
153.4168 -105.7022 0 199.5806 -117.771 0 261.4466 -130.7139 0 
345.846 -144.1892 0 460.3522 -157.0592 0 608.4185 -167.1903 0 
783.2313 -172.4016 0 941.0559 -172.4533 0 1063.409 -170.1096 0 
1164.153 -166.8746 0 1263.449 -162.682 0 1375.468 -156.8941 0 
1513.293 -148.414 0 1665.281 -137.5317 0 1791.864 -127.3721 0 
2195.451 -89.09491 0 2273.924 -80.67077 0 2383.731 -68.3513 0 
2517.64 -52.47337 0 2649.227 -35.9232 0 2740.773 -23.82991 0 
2804.387 -15.13419 0 2848.802 -8.916218 0 2881.944 -4.196067 0 
56.61447 67.79801 0 84.09687 81.25172 0 112.4783 92.48395 0 
142.1748 102.3504 0 174.8563 111.6168 0 213.124 120.8806 0 
260.3759 130.5151 0 324.6539 141.1779 0 418.1422 152.9178 0 
535.6656 162.9871 0 690.9154 170.4255 0 902.6513 172.7852 0 
1100.32 169.0517 0 1270.99 162.3262 0 1462.794 151.6837 0 
1631.287 140.0952 0 1747.993 131 0 1922.788 115.9027 0 
2069.56 101.951 0 2128.804 96.0021 0 2297.147 78.11721 0 
2414.379 64.80104 0 2554.023 47.99319 0 2673.693 32.73885 0 
2757.97 21.50315 0 2814.297 13.7575 0 2852.02 8.460961 0 
2882.272 4.148909 0 1791.052 127.4402 0 1366.894 157.3738 0 
1444.38 -152.8302 0 1547.039 146.1296 0 1589.287 -143.1614 0 
1878.731 119.8675 0 1997.072 108.9828 0 1185.654 166.0472 0 
1882.536 -119.5292 0 1971.323 -111.4145 0 1684.777 136.0292 0 
2099.317 -98.9855 0 2234.809 84.9091 0 2181.695 90.53914 0 
1728.573 -132.5703 0 1718.815 133.3509 0 1834.825 123.7132 0 
1960.305 112.4444 0 2033.69 105.4648 0 2099.184 98.99892 0 
2214.291 -77.642224097 396.8421 2955.512 12.474782844 396.8421 158.0786 -29.713635948 396.8421 
147.0109 -13.870168206 396.8421 143.3217 -3.7388123774 396.8421 142.09 6.6030356957 396.8421 
144.5505 21.186001172 396.8421 148.2398 29.496555956 396.8421 155.621 40.240907179 396.8421 
171.5701 55.536599823 396.8421 174.3652 -44.176036697 396.8421 2124.254 -86.687031376 396.8421 
200.2206 -60.202711777 396.8421 227.9488 -73.115111629 396.8421 256.8748 -83.971626463 396.8421 
290.3647 -94.384432721 396.8421 334.981 -105.78091889 396.8421 394.7733 -117.94717132 396.8421 
476.3434 -130.52623556 396.8421 587.0114 -142.39731931 396.8421 730.1145 -151.50867023 396.8421 
899.0676 -155.81528779 396.8421 1051.602 -155.27302571 396.8421 1169.853 -152.59293464 396.8421 
1267.221 -149.15414677 396.8421 1363.188 -144.82099595 396.8421 1471.452 -138.94224967 396.8421 
1604.657 -130.44463576 396.8421 1751.55 -119.658661 396.8421 1873.891 -109.66964534 396.8421 
2263.949 -72.482785515 396.8421 2339.792 -64.369320674 396.8421 2445.918 -52.540660249 396.8421 
2575.338 -37.352395481 396.8421 2702.515 -21.581299633 396.8421 2790.992 -10.091669606 396.8421 
2852.473 -1.8462304205 396.8421 2895.4 4.0419895914 396.8421 2927.431 8.5077299728 396.8421 
196.807 72.100405452 396.8421 223.3682 85.170648348 396.8421 250.7983 96.106804539 396.8421 
279.4994 105.73405281 396.8421 311.0855 114.79677191 396.8421 348.0705 123.88118129 396.8421 
393.7383 133.36132673 396.8421 455.8617 143.90445548 396.8421 546.2162 155.60824141 396.8421 
659.8003 165.80082815 396.8421 809.846 173.60605364 396.8421 1014.485 176.71700826 396.8421 
1205.528 173.85026233 396.8421 1370.477 167.94780997 396.8421 1555.851 158.26980661 396.8421 
1718.696 147.53464706 396.8421 1831.49 139.02267672 396.8421 2000.426 124.77254719 396.8421 
2142.278 111.49737173 396.8421 2199.537 105.81061423 396.8421 2362.236 88.630666204 396.8421 
2475.539 75.766901765 396.8421 2610.501 59.452571787 396.8421 2726.16 44.579331391 396.8421 
2807.613 33.58778423 396.8421 2862.05 25.993816726 396.8421 2898.509 20.79362198 396.8421 
2927.749 16.555765091 396.8421 1873.106 135.67501067 396.8421 1463.165 163.47474651 396.8421 
1538.054 -134.85693096 396.8421 1637.272 153.14310914 396.8421 1678.104 -125.22527247 396.8421 
1957.846 128.52756126 396.8421 2072.22 118.19969391 396.8421 1288 171.25110886 396.8421 
1961.524 -101.99906949 396.8421 2047.334 -94.093552131 396.8421 1770.393 143.73731288 396.8421 
2171.038 -82.037334915 396.8421 2301.989 95.168758658 396.8421 2250.655 100.57573301 396.8421 
1812.721 -114.7723197 396.8421 1803.29 141.22874041 396.8421 1915.411 132.16144621 396.8421 
2036.686 121.4905341 396.8421 2107.61 114.84929162 396.8421 2170.909 108.67725138 396.8421 
2284.511 -63.372072519 793.6842 3000.027 22.696068609 793.6842 299.6143 -21.309088543 793.6842 
288.9304 -6.0999746998 793.6842 285.3691 3.6385157903 793.6842 284.1801 13.588912077 793.6842 
286.5551 27.635726359 793.6842 290.1167 35.649329308 793.6842 297.2417 46.019462322 793.6842 
312.6379 60.802470661 793.6842 315.336 -35.1691778 793.6842 2197.597 -72.080581467 793.6842 
340.2947 -50.499580943 793.6842 367.0612 -62.826005087 793.6842 394.9839 -73.170032885 793.6842 
427.3123 -83.071559633 793.6842 470.3812 -93.88202701 793.6842 528.0998 -105.38383017 793.6842 
606.8411 -117.21575529 793.6842 713.6708 -128.28533609 793.6842 851.8104 -136.62500822 793.6842 
1014.904 -140.30927809 793.6842 1162.147 -139.41647929 793.6842 1276.298 -136.57947893 793.6842 
1370.288 -133.07776871 793.6842 1462.927 -128.73592669 793.6842 1567.436 -122.90631651 793.6842 
1696.021 -114.54833539 793.6842 1837.82 -104.01091767 793.6842 1955.917 -94.300339846 793.6842 
2332.447 -58.412083842 793.6842 2405.659 -50.622402458 793.6842 2508.105 -39.286140565 793.6842 
2633.037 -24.761355126 793.6842 2755.801 -9.7114029924 793.6842 2841.209 1.2347946868 793.6842 
2900.561 9.0818646803 793.6842 2941.997 14.681680215 793.6842 2972.917 18.926607778 793.6842 
336.9995 76.839878509 793.6842 362.6396 89.518275568 793.6842 389.1182 100.14452126 793.6842 
416.8239 109.51435498 793.6842 447.3145 118.34985805 793.6842 483.0167 127.22360424 793.6842 
527.1009 136.50619724 793.6842 587.0697 146.86433373 793.6842 674.2905 158.4260371 793.6842 
783.9349 168.59381029 793.6842 928.7766 176.55048652 793.6842 1126.317 180.09528066 793.6842 
1310.735 177.7868788 793.6842 1469.963 172.4412634 793.6842 1648.908 163.43836831 793.6842 
1806.105 153.31928607 793.6842 1914.987 145.23884073 793.6842 2078.064 131.6339788 793.6842 
2214.996 118.89389426 793.6842 2270.269 113.42042596 793.6842 2427.326 96.835870647 793.6842 
2536.699 84.376286848 793.6842 2666.98 68.531486563 793.6842 2778.628 54.050191163 793.6842 
2857.255 43.329045576 793.6842 2909.806 35.913337876 793.6842 2945.001 30.8314875 793.6842 
2973.224 26.687961932 793.6842 1955.16 142.05046304 793.6842 1559.437 168.30091827 793.6842 
1631.729 -118.88024151 793.6842 1727.505 158.61803527 793.6842 1766.921 -109.44126594 793.6842 
2036.96 135.22682352 793.6842 2147.368 125.33295426 793.6842 1390.347 175.45942846 793.6842 
2040.511 -86.867646935 793.6842 2123.346 -79.225628755 793.6842 1856.009 149.71954876 793.6842 
2242.759 -67.601548427 793.6842 2369.167 103.15543659 793.6842 2319.614 108.3743592 793.6842 
1896.869 -99.255932699 793.6842 1887.765 147.33693006 793.6842 1995.998 138.6987543 793.6842 
2113.066 128.4895498 793.6842 2181.531 122.1158387 793.6842 2242.634 116.18063983 793.6842 
2354.732 -51.117068364 1190.526 3044.539 31.093256696 1190.526 441.15 -12.995217256 1190.526 
430.8497 1.611680432 1190.526 427.4164 10.974369522 1190.526 426.2701 20.548189101 1190.526 
428.5601 34.075639825 1190.526 431.9934 41.799601842 1190.526 438.8627 51.802455299 1190.526 
453.7057 66.077336341 1190.526 456.3069 -26.288939846 1190.526 2270.94 -59.469526508 1190.526 
480.3688 -40.971338287 1190.526 506.1737 -52.758380828 1190.526 533.0934 -62.635513392 1190.526 
564.26 -72.076145578 1190.526 605.7815 -82.365033749 1190.526 661.4265 -93.285376446 1190.526 
737.3385 -104.47935758 1190.526 840.33 -114.88940606 1190.526 973.5064 -122.63256234 1190.526 
1130.74 -125.88963583 1190.526 1272.693 -124.81067603 1190.526 1382.742 -121.93616832 1190.526 
1473.356 -118.46419451 1190.526 1562.666 -114.19949209 1190.526 1663.42 -108.50876442 1190.526 
1787.385 -100.39043557 1190.526 1924.09 -90.196860298 1190.526 2037.944 -80.831233903 1190.526 
2400.946 -46.363852734 1190.526 2471.527 -38.904202902 1190.526 2570.292 -28.058382636 1190.526 
2690.735 -14.177034052 1190.526 2809.091 0.19144857791 1190.526 2891.43 10.634233818 1190.526 
2948.647 18.116972158 1190.526 2988.597 23.455219252 1190.526 3018.403 27.501102415 1190.526 
477.1918 81.585543466 1190.526 501.9109 93.863316604 1190.526 527.4382 104.16711625 1190.526 
554.1485 113.26380536 1190.526 583.5435 121.85251153 1190.526 617.963 130.49055402 1190.526 
660.4633 139.54179124 1190.526 718.2775 149.66502364 1190.526 802.3645 161.00576131 1190.526 
908.0698 171.04119481 1190.526 1047.707 178.99707257 1190.526 1238.151 182.75720057 1190.526 
1415.942 180.79952025 1190.526 1569.449 175.83435807 1190.526 1741.965 167.3176629 1190.526 
1893.514 157.66118955 1190.526 1998.484 149.91506191 1190.526 2155.702 136.82694087 1190.526 
2287.714 124.53249557 1190.526 2341.001 119.24160635 1190.526 2492.415 103.18387885 1190.526 
2597.858 91.098530665 1190.526 2723.46 75.708366132 1190.526 2831.095 61.625691513 1190.526 
2906.899 51.191107101 1190.526 2957.56 43.970012944 1190.526 2991.49 39.019984462 1190.526 
3018.699 34.983095151 1190.526 2037.214 146.85239112 1190.526 1655.708 171.93076011 1190.526 
1725.403 -104.59343291 1190.526 1817.738 162.72521769 1190.526 1855.738 -95.445340246 1190.526 
2116.075 140.28799618 1190.526 2222.516 130.75020796 1190.526 1492.694 178.65497715 1190.526 
2119.498 -73.676243528 1190.526 2199.357 -66.329975761 1190.526 1941.625 154.21337121 1190.526 
2314.479 -55.172443406 1190.526 2436.346 109.30697335 1190.526 2388.573 114.35980525 1190.526 
1981.017 -85.60787269 1190.526 1972.24 151.92859441 1190.526 2076.584 143.6295068 1190.526 
[...]
POINT_DATA 1740
FIELD FieldData 1
Pressure 1 1740 double
3.1046696012 3.0183795041 3.0093149811 2.9857231565 2.9789079124 2.9597204665 2.9718502339 2.9890399848 3.0200949892 
3.0343070394 3.0106690932 3.1086049636 3.0333236295 3.0477673241 3.0650144714 3.064277598 3.0815885492 3.0868706126 
3.1076129737 3.1129202577 3.1313099633 3.1395353655 3.1416037835 3.1472879989 3.1424819653 3.1385032472 3.1351781269 
3.1316059852 3.1250404263 3.1194012545 3.1021039633 3.0987071761 3.0931253179 3.0850702244 3.0742215401 3.0641820466 
3.0542859579 3.0456335083 3.0372509031 3.0701886983 3.0819146138 3.0944339097 3.1077186798 3.1140774839 3.120535624 
3.1278277528 3.1355266502 3.1512385421 3.1636099988 3.1807996261 3.1917542713 3.1982984307 3.2042969309 3.2101678006 
3.2141782216 3.2173552395 3.2182276522 3.1756714643 3.0980686892 3.0850835238 3.0797640513 3.0712040009 3.0616811993 
3.0512489056 3.0409194541 3.0333008387 3.0318060206 3.2172047162 3.207936746 3.1340081421 3.2114943526 3.1283376022 
3.2179374466 3.2187008774 3.2050741528 3.1156582957 3.1120127879 3.215291882 3.1065283565 3.088380257 3.0883994784 
3.1220130263 3.2169433362 3.2175914722 3.2192935376 3.2245067601 3.083520874 3.1017041468 3.0227804583 3.0275756318 
3.0010718438 3.0078844847 2.9864818354 2.9938651304 3.0056323175 3.0340789827 3.0526293597 3.0350679577 3.1059754982 
3.0553926758 3.0678329133 3.0811440493 3.0852293116 3.1004508823 3.1099581298 3.1230498168 3.1282664091 3.1382814401 
3.1424902746 3.1461076546 3.1462547203 3.1418822332 3.1373158597 3.1321369847 3.127902767 3.1218915324 3.1166118923 
3.0994319217 3.0954053804 3.0897540944 3.081846846 3.0709380282 3.060884191 3.0511357771 3.0435565299 3.0283488965 
3.0857711938 3.1069007751 3.1191497093 3.1275978366 3.1368221647 3.1413425942 3.1468898876 3.1573210909 3.1690838533 
3.1777817703 3.1874716553 3.1953742068 3.2017156527 3.2081820453 3.2116803435 3.2146276264 3.2172488356 3.2196953534 
3.0857977834 3.0959979244 3.089246791 3.0832257199 3.0747425035 3.0641603853 3.0539470475 3.0438603027 3.0373332424 
3.0378580219 3.2178697341 3.2098974422 3.1309502804 3.2142002718 3.1246087011 3.2191812049 3.2187061658 3.2065959625 
3.1127761912 3.1091655961 3.2159067715 3.1040645453 3.092462606 3.095412232 3.119456577 3.2166301158 3.2178873745 
3.2180897149 3.1839972081 3.0954298349 3.0997063843 3.0226362076 3.0278691147 3.0002554756 3.0022874547 2.9845684345 
2.996640319 3.0103268708 3.0392613551 3.0604909 3.0433549198 3.1039315694 3.0582475587 3.0772619196 3.0953317578 
3.1019886977 3.1143081647 3.1225457133 3.1352363383 3.141336932 3.1479033596 3.1501391265 3.1494849461 3.1475785807 
3.1417361939 3.1360721839 3.1309434888 3.1251981897 3.1199012986 3.1147701464 3.097381586 3.0936357559 3.0877628827 
3.0800149733 3.0689643826 3.0587604179 3.0495456962 3.0423338909 3.0287598532 3.0934642376 3.115183287 3.1336029199 
3.1425898905 3.1527241047 3.1614871538 3.1714001158 3.1757005964 3.1842309874 3.1941245051 3.1998304196 3.2054756125 
3.2079302964 3.2144497599 3.2173789189 3.2180717499 3.2197190967 3.2233367581 3.0896877056 3.0901374746 3.0882065785 
3.0829395389 3.0750650727 3.0646445583 3.0548734272 3.0451047874 3.0380822765 3.0395955451 3.220383911 3.2162589698 
3.128539072 3.2180154573 3.1225123201 3.2212206423 3.2181103614 3.2118665251 3.1108597437 3.1071613807 3.2184574277 
3.1021066235 3.0905824628 3.0913177001 3.1174765234 3.2189269419 3.2209889082 3.2238462815 3.0825014796 3.0839857026 
3.0983393394 3.0226502217 3.0284378646 3.0001986955 3.002662553 2.9827782484 2.9926290587 3.0072687939 3.0399009208 
3.061614199 3.0427212103 3.1025506207 3.0631085689 3.0806205508 3.0995754081 3.1084798078 3.1203935832 3.1289388914 
3.1410106056 3.1481279316 3.1539995514 3.1548336103 3.1528402267 3.1488966474 3.1422151662 3.1360700451 3.1303615788 
3.1244661638 3.1185039695 3.1134351937 3.0961020237 3.0923540071 3.0867175203 3.0790205406 3.0681563447 3.0579981616 
3.0491359724 3.0419513835 3.0289617482 3.097526875 3.1208884144 3.1361376809 3.1482234063 3.1558271917 3.1667827242 
3.1791716226 3.1890217166 3.1969421786 3.2065454741 3.212082865 3.2168747521 3.2174380275 3.2230223175 3.2252559425 
3.2250647299 3.2258109344 3.2356002117 3.0896596851 3.0896671321 3.0870996874 3.0820821451 3.0741290206 3.0640806735 
3.0545069518 3.0450666926 3.0378738015 3.0395929283 3.2261264764 3.2243146359 3.1278602941 3.2253120693 3.1213472039 
3.2262600792 3.0844270265 3.220435689 3.1095882957 3.1056794193 3.2251273848 3.1006749059 3.0892846404 3.0896687201 
3.1160107391 3.2251675348 3.2264494333 3.1175451243 3.0879586926 3.0897179291 3.0975045359 3.0223533675 3.0306553549 
3.0011060325 3.0082332573 2.9870307981 2.9947652273 3.008368539 3.0420723666 3.0629097204 3.0439328544 3.1016315081 
3.0655243285 3.0828917581 3.0998113025 3.1096539018 3.1222574283 3.1326758034 3.1436700478 3.1514741405 3.1577119594 
3.1574082862 3.1541522041 3.148841459 3.1416379107 3.1351898247 3.1292280451 3.1235687534 3.1176639649 3.1123622294 
3.0952542951 3.0915072814 3.085968652 3.0783191372 3.0676789178 3.05768829 3.0490030803 3.041708508 3.0292329192 
3.0990327883 3.1228971067 3.1378376594 3.1509581912 3.1599690836 3.1713396161 3.1827253901 3.1887010025 3.1998421249 
3.2122760176 3.220974003 3.2255513773 3.2267038732 3.2313185293 3.2328955288 3.2324220663 3.2329010667 3.1617500996 
3.0884439121 3.088096794 3.0855116523 3.0805006978 3.0725884678 3.0628623176 3.0534887045 3.0442625236 3.0371306025 
3.0391547001 3.2331445652 3.2327717895 3.1269610318 3.2326848614 3.1204895988 3.2318190285 3.0882347698 3.2293180555 
3.1085726772 3.1046252507 3.2323358751 3.0996135325 3.0874851487 3.088160462 3.1150591114 3.2324284245 3.2332770179 
3.0878980204 3.0888847101 3.0885254517 3.0967742367 3.0221690968 3.0317900011 3.0025163101 3.010262049 2.9879928939 
2.9963551672 3.0098909823 3.043081648 3.0648662504 3.0449234249 3.1007738569 3.0667555052 3.0847264735 3.1008232604 
3.1111072505 3.1237672591 3.1349319122 3.1462354617 3.1540327195 3.1608195507 3.1594529421 3.1549716174 3.1484126353 
3.1408856734 3.134335642 3.1282885745 3.1226643897 3.1167592333 3.1114219239 3.0945149336 3.0907634132 3.0853386345 
3.0777152892 3.067211871 3.0572987197 3.0487363935 3.0413484233 3.0294557227 3.1006109138 3.1248292082 3.1398986807 
3.1531050993 3.1622026371 3.1740633562 3.186771491 3.1940478147 3.2055341585 3.2174381187 3.227916622 3.2333057931 
3.2353316551 3.2405465867 3.2418246665 3.2403754822 3.2402799777 3.0830299792 3.0873201991 3.086553353 3.0839957367 
3.079271389 3.0717327391 3.062158536 3.0529052969 3.044051417 3.0369073209 3.0391064906 3.2404448625 3.2411386604 
3.1260167963 3.2411021587 3.119583203 3.2414219046 3.0875804151 3.237989743 3.1076668168 3.1037629716 3.2399650481 
3.0988833631 3.0857847837 3.0865504886 3.1141647143 3.2399692598 3.2405098035 3.0831083653 3.0872718396 3.0872014651 
3.0962028989 3.0224046889 3.0321648976 3.0027164202 3.0099085213 2.9875232472 2.9963319703 3.010000629 3.043326836 
3.0653866386 3.0454701917 3.1002015224 3.0674477826 3.0856655994 3.1016907552 3.1122425899 3.1250115786 3.1366060787 
3.1480066411 3.1558672158 3.1630493552 3.1609490559 3.1554921882 3.1480505325 3.1404078973 3.1338520793 3.1277862261 
3.1220772948 3.1161358302 3.1108379095 3.0939666383 3.0902079495 3.0848675869 3.0772680121 3.0668591527 3.0569498204 
3.0484665749 3.0409871045 3.0295435166 3.1011896496 3.1257054889 3.1411705078 3.1545020286 3.1639334919 3.1758976328 
3.1885791775 3.1966182142 3.2086235681 3.2216310068 3.2329441367 3.2397874644 3.2429615379 3.2489721613 3.2505733681 
3.2492984863 3.2485635698 3.0818103941 3.0872016457 3.0861257261 3.0840861733 3.0795630929 3.0723233619 3.0627310468 
3.0535551831 3.0448096776 3.0375879189 3.0399997589 3.2483829336 3.2499969926 3.1254813918 3.2502689216 3.1189853465 
3.2538915239 3.0853408297 3.2460255259 3.1070721468 3.1031767791 3.248605507 3.098280376 3.0857321757 3.0863774431 
3.1134694867 3.2482493347 3.2487842272 3.0841227729 3.0860946669 3.0871375426 3.095852993 3.0227300586 3.0325668803 
3.002976447 3.010047962 2.9877137929 2.9964199186 3.009999969 3.0435721027 3.0656168715 3.0458959631 3.0999089944 
3.0679554504 3.0861461947 3.1020991164 3.1128719524 3.1258309799 3.1377815566 3.1491764264 3.1571295359 3.1646357922 
3.1620576869 3.1557438726 3.1477765538 3.1401088594 3.1335848287 3.1275603188 3.1215794055 3.1157716916 3.1104324626 
3.0936299175 3.0898591309 3.0846065749 3.0770174034 3.0666553911 3.0567065176 3.0482860694 3.0406951568 3.0296898934 
3.1014652201 3.1261959301 3.1418536911 3.1553155243 3.1649036153 3.1769531012 3.1897133109 3.1983701923 3.2106630538 
3.2241905528 3.2361488707 3.2442543098 3.2489349671 3.2556458924 3.2579778064 3.2575249771 3.2568968921 3.0865307745 
3.0880623129 3.0865981816 3.084192523 3.0798456753 3.0729117041 3.0634769242 3.0545073421 3.045836982 3.0384581921 
3.0411213308 3.2567372794 3.2575784025 3.125054808 3.2578826471 3.1186020213 3.2404107306 3.0865521966 3.2524705107 
3.1066991517 3.1028936485 3.2570855842 3.0979115449 3.0859347618 3.0866663752 3.1130447175 3.2566358442 3.257418653 
3.0909521997 3.0873280036 3.0882186485 3.0957070689 3.0228760911 3.0329810455 3.0033330816 3.0103400126 2.9879887155 
2.9967207072 3.0102598361 3.0438835627 3.0659740261 3.046289376 3.0997380884 3.0683321209 3.0867561879 3.1027213385 
3.1136696529 3.1266392792 3.1388195972 3.1502075004 3.1583706974 3.1659733413 3.1630444003 3.1560226349 3.1477991066 
3.1400914855 3.1335227385 3.1275286528 3.1214245055 3.1156353844 3.1102645053 3.093464292 3.0896775267 3.0845041971 
3.0768673884 3.0665979902 3.0564971616 3.0481299013 3.0404606666 3.029759358 3.1018209018 3.1266521411 3.1424673651 
3.156004737 3.165670712 3.1777881929 3.1905197848 3.1995635892 3.212127134 3.225971713 3.2382792995 3.2475475355 
3.2531137591 3.2606914539 3.2645190812 3.2642162701 3.2644041611 3.0886879297 3.0882567715 3.086535151 3.0832363675 
3.078977823 3.0722418294 3.0630531886 3.0543228168 3.0458026839 3.0382908452 3.0412531228 3.2646751877 3.2628435183 
3.1249591779 3.2645385953 3.1184893246 3.2444987013 3.086924064 3.2570670034 3.1065404098 3.1027930006 3.2641232754 
3.0976779189 3.0851801626 3.0859523777 3.1128494697 3.2639086762 3.2648151085 3.0972731329 3.088549099 3.0889660413 
3.0956519015 3.0225986597 3.0333407412 3.0036828115 3.0106780208 2.9882674431 2.9970201903 3.0105613994 3.0441846897 
3.0663624893 3.0465750119 3.0995571641 3.068589123 3.0870962356 3.1031618714 3.1142447723 3.1272892011 3.1396424383 
3.1511278613 3.1595747698 3.1672240234 3.1640745874 3.156524506 3.1481306716 3.1402792042 3.1336732284 3.1276469615 
3.1215606514 3.1157057958 3.1102570931 3.093399611 3.0896272351 3.0845245467 3.0768274904 3.0666326751 3.0564624396 
3.0481252455 3.0404098755 3.0298983259 3.1022123015 3.127109694 3.1430432377 3.15661485 3.1663698778 3.1785019127 
3.1912098537 3.2004951723 3.2132695182 3.2273141139 3.2398371912 3.2494844712 3.2559063509 3.2640887505 3.2680269536 
3.2693847473 3.2698424996 3.0863641599 3.0847542623 3.0846168787 3.0811691864 3.0767850819 3.0701243698 3.0610793777 
3.0525310363 3.0442719628 3.0367974375 3.0398648298 3.2700959435 3.2666495622 3.1250971282 3.269195275 3.1186090545 
3.2640189114 3.0850576657 3.2602174353 3.1066146325 3.1027903486 3.2695383377 3.097537374 3.0831984086 3.0836919625 
3.1128201717 3.2695720379 3.2700840017 3.0927054413 3.0848176954 3.0848853907 3.0957068818 3.0220114664 3.0336548795 
3.0039791089 3.0110387354 2.988569521 2.997315593 3.0108381229 3.0445035066 3.0667520513 3.0467063222 3.0997528063 
3.0687179622 3.0872884084 3.1034330995 3.1146384333 3.1277429008 3.1402468977 3.1519447905 3.1606969573 3.1684175583 
3.1652111657 3.1572991463 3.1487475264 3.1406973035 3.1340660515 3.1279554055 3.1220025604 3.1159992686 3.1104706159 
3.0935036319 3.089699931 3.0846457889 3.076906073 3.0667956505 3.0565784538 3.0482732371 3.0404988603 3.030347821 
3.1026399414 3.1275631309 3.1436027253 3.1571893282 3.1669937006 3.1791216307 3.191812539 3.2012542197 3.2141819084 
3.228325772 3.2410050904 3.2507893976 3.2575913349 3.2663321982 3.2705478446 3.2723077893 3.2733479266 3.0778567927 
3.0802927388 3.0800362379 3.0776915062 3.0734270068 3.0669629951 3.0580450135 3.0496199214 3.0416539925 3.0344433482 
3.0373439035 3.2739295354 3.2690206418 3.1255458111 3.2719636961 3.1189512021 3.2872494016 3.0799763802 3.2621196403 
3.1068370029 3.1031362711 3.2728866162 3.0975320602 3.0792364763 3.0791219078 3.1130140739 3.2730067442 3.2741656079 
3.0800552987 3.0797997825 3.0802407114 3.0959724808 3.0216027947 3.0338931775 3.0042006198 3.0113085023 2.988873513 
2.9976244639 3.0111268773 3.0448425196 3.067176001 3.0467631013 3.1000452948 3.0687573218 3.0872997829 3.1035470028 
3.1148958862 3.1280610431 3.140700597 3.1526921925 3.1617823648 3.1696330318 3.1665733564 3.1584433838 3.1496716455 
3.1413708763 3.1347031793 3.1284706704 3.1224889428 3.1163444313 3.1107821194 3.0937555864 3.0899166422 3.0848671219 
3.0770734645 3.0670219134 3.0567473161 3.048455608 3.0406546102 3.0309196605 3.1031334358 3.1280570238 3.1441756221 
3.1577634633 3.1676085526 3.1797185212 3.192370535 3.2019507203 3.2150162486 3.2291560826 3.2419248916 3.2517845675 
3.2586994381 3.2676627749 3.2720468846 3.2741881454 3.2755659121 3.0753552051 3.0766278023 3.0760179223 3.0744187589 
3.0702732575 3.063909445 3.0550802879 3.0467474379 3.0390722321 3.0322998357 3.03475315 3.2763149751 3.2705960487 
3.1260392371 3.2737510921 3.1193892771 3.2894783754 3.0763686878 3.2633071891 3.1071571786 3.1035139423 3.2748492622 
3.0977756098 3.0758387397 3.0757629954 3.1132995057 3.2751058529 3.2763957619 3.0737090308 3.0765625709 3.0762940321 
3.0962781386 3.0217187127 3.0341204356 3.0043190487 3.0112805065 2.9891650181 2.9979616411 3.0114647001 3.0452444852 
3.067655543 3.0467218529 3.1003628878 3.0686222772 3.0872597957 3.1036782679 3.1151898109 3.1283730531 3.1411098177 
3.1534148215 3.162881475 3.1709962852 3.1682692416 3.1600959345 3.150920332 3.1422753265 3.1354794416 3.1291342405 
3.1231051837 3.1168554974 3.1112020504 3.0940355569 3.090166355 3.0851233217 3.0772612669 3.0672178851 3.0568935168 
3.0485956631 3.0407962129 3.0311174224 3.103718328 3.1286214943 3.1448394484 3.1584575948 3.1683109236 3.1804173722 
3.19300955 3.2027014141 3.2159267036 3.2299605637 3.2427312035 3.2526561046 3.2595481976 3.268480803 3.2731623642 
3.2753984905 3.2769438599 3.0745075027 3.0745081951 3.0738000137 3.0723005489 3.0684140599 3.0623308981 3.0536106026 
3.0453119514 3.0379581164 3.0315223725 3.0336704187 3.2774514452 3.2716006051 3.1266732512 3.2749171663 3.1198601478 
3.2901400165 3.0747020394 3.2641226956 3.1075434172 3.1038433894 3.2761264348 3.0980598084 3.0736044294 3.0736390872 
3.1137380997 3.2763930952 3.2783274317 3.0729679303 3.0744373704 3.0740055127 3.0965752395 3.0223173092 3.034471927 
3.0044573589 3.0111844539 2.9896016024 2.9984134349 3.0118990165 3.0458820279 3.0682919637 3.0464555768 3.1006796059 
3.0683811482 3.0870903143 3.1037028118 3.1154052283 3.1286200197 3.1414320566 3.1541080055 3.1641181687 3.1723078473 
3.1701139788 3.1621307385 3.1522798123 3.1432227571 3.1361951804 3.1297025461 3.1236200196 3.1172531108 3.1115810185 
3.0942996427 3.0904117874 3.0853443264 3.0774432585 3.0673514973 3.0570090464 3.0486822975 3.0409250661 3.0308248541 
3.1045228542 3.1293695743 3.1457485155 3.1593729855 3.1692216113 3.181300141 3.1938629831 3.2035994343 3.2169888691 
3.2308014785 3.2435463571 3.2534136301 3.2602861328 3.2691306438 3.273906118 3.2763575119 3.2778335569 3.0717262884 
3.0748983848 3.0743380449 3.0727496755 3.0690686256 3.0632676578 3.0545551638 3.0462210837 3.0389360582 3.0325968541 
3.0344241817 3.2789289596 3.2723407396 3.1272615395 3.2757201058 3.1203111173 3.2854240959 3.0739439033 3.2647771849 
3.10787202 3.1041151476 3.2770953862 3.0983704403 3.0740633692 3.0742727147 3.1141212091 3.2773746566 3.2801337222 
3.0731581954 3.0742030735 3.0748226675 3.0969020974 3.0232447232 3.0347098927 3.0047090325 3.0113347361 2.9903300706 
2.9990654036 3.0125013183 3.0470354956 3.069227724 3.0460787598 3.1010120381 3.0678992561 3.0866769285 3.103511502 
3.1153519259 3.1285496985 3.1413727534 3.1545630714 3.165187919 3.1735641475 3.1720539526 3.1644660197 3.1536307621 
3.1440032471 3.1366482908 3.1299585384 3.1239458781 3.1175662946 3.1119850763 3.0945950962 3.090742037 3.0855940154 
3.0777128155 3.0674982952 3.0571410121 3.0487598911 3.0410223391 3.0300209929 3.1054761399 3.1303623093 3.1466536577 
3.1602520367 3.1701717786 3.1821122634 3.1947490441 3.2046040226 3.2180425047 3.2316855151 3.2442429855 3.2544840822 
3.2612091394 3.269868761 3.275179407 3.2777775923 3.2794882856 3.0767601876 3.0771901272 3.0768943314 3.0751512493 
3.071383735 3.0657809406 3.0571128171 3.0488365458 3.0414323615 3.0349158952 3.0367354554 3.2807746131 3.2731319443 
3.1276433648 3.2769299025 3.1206463229 3.2338267252 3.0768990949 3.2655479087 3.1081593303 3.1044273274 3.2783577951 
3.0987564627 3.0766874687 3.0766867687 3.1145732484 3.2787707879 3.2894595522 3.0773937612 3.0772991279 3.0774301757 
3.0973126014 3.0239408368 3.0335158187 3.0039333773 3.0113769312 2.9901261141 2.9993762855 3.0128790967 3.0472372663 
3.0699278068 3.0450629843 3.1016030755 3.0664206751 3.0854753146 3.1026089936 3.1147591739 3.1279214703 3.1402420893 
3.1549089208 3.1650858178 3.1748700264 3.1747113907 3.1674404073 3.1552785889 3.1448531734 3.1370428808 3.1301719212 
3.1241405194 3.1186591063 3.1128031864 3.0950229145 3.0911583014 3.0859080421 3.0780191499 3.0676014947 3.057216934 
3.0487570948 3.0409683173 3.0287008847 3.1061175629 3.1311919346 3.147368426 3.1608083753 3.1708632652 3.1828399351 
3.1955059316 3.2055893776 3.2191265652 3.2327439252 3.2457858855 3.2556716776 3.2626633857 3.2715267252 3.278188699 
3.280556481 3.2816838244 3.0756547557 3.0786249815 3.0790242435 3.077463934 3.0736543815 3.0681014158 3.0594817642 
3.0514661005 3.0439319677 3.0371880046 3.0394638344 3.2825623942 3.2751642554 3.1279990106 3.2796985951 3.1209885611 
3.1022862004 3.0779757053 3.2668687787 3.1088403002 3.1048725794 3.2806671034 3.0992794511 3.0788508825 3.0787465689 
3.1155577971 3.2808679945 3.2546889776 3.0769063617 3.0783488431 3.0786066486 3.097694675 3.0235495873 3.0324240648 
3.0016990953 3.0064282032 2.9886407012 2.9982578055 3.0125059338 3.0466409658 3.0700360967 3.0434198931 3.1017502246 
3.0651342155 3.0839193757 3.1018657837 3.1136224471 3.126843651 3.1388084043 3.1558129431 3.1667218886 3.1775456943 
3.1799920944 3.171940128 3.1583502176 3.1460902781 3.1374994406 3.1308301549 3.1244877948 3.1184795274 3.1134919474 
3.095569605 3.0916077972 3.0862681781 3.07860375 3.067773974 3.0572261085 3.0484908593 3.0406973062 3.0268286935 
3.1068813736 3.1318828265 3.1484106384 3.1620529414 3.1721736473 3.1841114119 3.1965293595 3.2075004786 3.2215571919 
3.2356540797 3.249137559 3.2622398606 3.2666710843 3.2751329012 3.2804355214 3.2799946461 3.2887172819 3.0736048332 
3.0792602096 3.0792843564 3.0795885813 3.0754879931 3.0697430837 3.0608253159 3.0530441676 3.0451246583 3.0381929167 
3.0410285874 3.2530966954 3.2783656461 3.1280826725 3.2805653043 3.121543669 3.0711051135 3.0765589957 3.2702508516 
3.1088575667 3.1050487499 3.2804729726 3.0997771656 3.0804505564 3.0803312697 3.1161094022 3.2795895658 3.0480619624 
3.0754459722 3.0778433335 3.0799116273 3.0980824536 3.0256836944 3.0339872623 3.0046667391 3.0079530593 2.9899721571 
3.0007402972 3.015510579 3.0505448629 3.0715408304 3.0461959571 3.1017127454 3.0653853593 3.0856625177 3.1015635966 
3.115209573 3.1285394593 3.1405285673 3.1603329071 3.1810674364 3.1850168687 3.1839076738 3.1745857455 3.1589857495 
3.1465377034 3.1374558796 3.1305093605 3.1235900587 3.1164310197 3.1112208767 3.0952149563 3.0927990129 3.0870518959 
3.0777096488 3.0680668041 3.0567844022 3.0475990021 3.0390515628 3.0248321408 3.1055972095 3.1326271501 3.1536177709 
3.1675952428 3.1766043159 3.1931762574 3.2021503337 3.2126745379 3.2308639148 3.2429303045 3.2587966095 3.2679245117 