# vtk DataFile Version 4.2
vtk output
ASCII
DATASET POLYDATA
POINTS 7223 float
1544.18 -3332.15 0 1553.85 -3347.76 0 1584.12 -3332.15 0 
1533.65 -3315.15 0 1590.85 -3329.71 0 1617.64 -3315.15 0 
1523.11 -3298.15 0 1627.85 -3309.6 0 1648.92 -3298.15 0 
1512.58 -3281.15 0 1516.85 -3288.04 0 1664.85 -3289.49 0 
1680.21 -3281.15 0 1502.05 -3264.15 0 1701.85 -3269.38 0 
1711.49 -3264.15 0 1491.52 -3247.15 0 1738.86 -3249.27 0 
1742.77 -3247.14 0 1480.99 -3230.15 0 1774.05 -3230.14 0 
1470.45 -3213.15 0 1479.85 -3228.32 0 1775.86 -3229.16 0 
1805.34 -3213.14 0 1459.92 -3196.15 0 1812.86 -3209.05 0 
1836.62 -3196.14 0 1449.39 -3179.15 0 1849.86 -3188.94 0 
1867.9 -3179.14 0 1438.86 -3162.15 0 1442.85 -3168.59 0 
1886.86 -3168.83 0 1899.18 -3162.13 0 1428.33 -3145.15 0 
1923.87 -3148.72 0 1930.46 -3145.13 0 1417.8 -3128.15 0 
1960.87 -3128.61 0 1961.75 -3128.13 0 1407.26 -3111.15 0 
1993.03 -3111.13 0 1396.73 -3094.14 0 1405.86 -3108.87 0 
1997.87 -3108.5 0 2024.31 -3094.13 0 1386.2 -3077.14 0 
2034.87 -3088.39 0 2055.59 -3077.13 0 1375.67 -3060.14 0 
2071.88 -3071.51 0 2108.88 -3064.93 0 2143.74 -3060.12 0 
1365.14 -3043.14 0 1368.86 -3049.15 0 2145.88 -3059.83 0 
2182.88 -3054.72 0 2219.88 -3049.61 0 2256.88 -3044.5 0 
2266.92 -3043.12 0 1354.61 -3026.14 0 2293.88 -3039.4 0 
2305.69 -3026.12 0 1344.07 -3009.14 0 2314.99 -3009.11 0 
1333.54 -2992.14 0 2320.08 -2992.11 0 1323.01 -2975.14 0 
1331.86 -2989.42 0 2323.56 -2975.11 0 1312.48 -2958.14 0 
2327.03 -2958.11 0 1301.95 -2941.14 0 2330.51 -2941.11 0 
1291.42 -2924.14 0 1294.86 -2929.7 0 2330.89 -2939.25 0 
2333.99 -2924.11 0 1258.18 -2907.14 0 2337.46 -2907.11 0 
1210.22 -2890.14 0 1220.86 -2893.91 0 1257.86 -2907.02 0 
2340.94 -2890.11 0 1162.26 -2873.14 0 1183.86 -2880.79 0 
2344.42 -2873.11 0 1114.3 -2856.14 0 1146.86 -2867.68 0 
2347.89 -2856.1 0 1066.33 -2839.14 0 1072.86 -2841.45 0 
1109.86 -2854.57 0 2351.37 -2839.1 0 1021.74 -2822.14 0 
1035.86 -2828.34 0 2354.85 -2822.1 0 990.562 -2805.14 0 
998.862 -2810.48 0 2358.32 -2805.1 0 964.154 -2788.14 0 
2361.8 -2788.1 0 953.641 -2771.14 0 961.862 -2786.66 0 
2365.28 -2771.1 0 944.883 -2754.14 0 2367.9 -2758.27 0 
2368.75 -2754.1 0 936.372 -2737.14 0 2372.23 -2737.1 0 
928.095 -2720.14 0 2375.71 -2720.1 0 920.886 -2703.13 0 
924.865 -2713.37 0 2379.18 -2703.09 0 914.276 -2686.13 0 
2382.66 -2686.09 0 907.666 -2669.13 0 2386.14 -2669.09 0 
901.057 -2652.13 0 2389.61 -2652.09 0 894.447 -2635.13 0 
2393.09 -2635.09 0 887.837 -2618.13 0 887.87 -2618.21 0 
2396.57 -2618.09 0 881.227 -2601.13 0 2400.04 -2601.09 0 
874.617 -2584.13 0 2403.52 -2584.09 0 868.008 -2567.13 0 
2404.91 -2577.28 0 2407 -2567.09 0 861.398 -2550.13 0 
2410.47 -2550.08 0 854.788 -2533.13 0 2413.95 -2533.08 0 
848.179 -2516.13 0 850.875 -2523.06 0 2417.43 -2516.08 0 
841.569 -2499.12 0 2420.9 -2499.08 0 834.959 -2482.12 0 
2424.38 -2482.08 0 828.349 -2465.12 0 2427.86 -2465.08 0 
821.74 -2448.12 0 2431.33 -2448.08 0 815.13 -2431.12 0 
2434.81 -2431.08 0 808.52 -2414.12 0 813.879 -2427.9 0 
2438.29 -2414.08 0 801.91 -2397.12 0 2441.77 -2397.07 0 
795.301 -2380.12 0 2441.93 -2396.29 0 2445.24 -2380.07 0 
788.691 -2363.12 0 2448.72 -2363.07 0 782.081 -2346.12 0 
2452.2 -2346.07 0 775.471 -2329.12 0 776.884 -2332.75 0 
2455.67 -2329.07 0 768.862 -2312.12 0 2459.15 -2312.07 0 
762.252 -2295.11 0 2462.63 -2295.07 0 755.642 -2278.11 0 
2466.1 -2278.07 0 749.032 -2261.11 0 2469.58 -2261.07 0 
742.423 -2244.11 0 2473.06 -2244.07 0 735.813 -2227.11 0 
739.888 -2237.59 0 2476.53 -2227.06 0 729.203 -2210.11 0 
2478.94 -2221.82 0 2483.76 -2210.06 0 722.593 -2193.11 0 
2495.86 -2193.06 0 716.121 -2176.11 0 2507.98 -2176.06 0 
712.388 -2159.11 0 2515.94 -2164.88 0 2520.09 -2159.06 0 
709.885 -2142.11 0 2532.2 -2142.06 0 707.393 -2125.11 0 
2544.31 -2125.06 0 704.901 -2108.1 0 2545.92 -2108.06 0 
702.409 -2091.1 0 702.896 -2094.43 0 2546.16 -2091.05 0 
699.917 -2074.1 0 2546.06 -2074.05 0 697.424 -2057.1 0 
2544.93 -2057.05 0 694.932 -2040.1 0 2543.79 -2040.05 0 
692.44 -2023.1 0 2542.66 -2023.05 0 689.948 -2006.1 0 
2541.52 -2006.05 0 687.456 -1989.1 0 2540.39 -1989.05 0 
684.964 -1972.1 0 2539.26 -1972.05 0 682.472 -1955.1 0 
2538.12 -1955.05 0 679.98 -1938.1 0 2536.99 -1938.05 0 
677.488 -1921.09 0 2535.86 -1921.04 0 674.996 -1904.09 0 
2534.72 -1904.04 0 672.504 -1887.09 0 2533.59 -1887.04 0 
670.012 -1870.09 0 2532.46 -1870.04 0 667.52 -1853.09 0 
2531.32 -1853.04 0 665.099 -1836.09 0 665.91 -1842.11 0 
2530.19 -1836.04 0 662.894 -1819.09 0 2529.06 -1819.04 0 
660.812 -1802.09 0 2527.92 -1802.04 0 658.841 -1785.09 0 
2526.79 -1785.04 0 656.957 -1768.09 0 2525.66 -1768.04 0 
655.872 -1751.09 0 2524.52 -1751.03 0 654.787 -1734.08 0 
2523.39 -1734.03 0 653.702 -1717.08 0 2522.26 -1717.03 0 
652.593 -1700.08 0 2521.12 -1700.03 0 650.995 -1683.08 0 
2519.99 -1683.03 0 649.377 -1666.08 0 2518.86 -1666.03 0 
647.758 -1649.08 0 2517.72 -1649.03 0 645.207 -1632.08 0 
2516.59 -1632.03 0 642.013 -1615.08 0 2515.97 -1622.75 0 
2515.46 -1615.03 0 639.467 -1598.08 0 2514.32 -1598.03 0 
637.389 -1581.08 0 2513.27 -1581.03 0 -481.105 -1568.86 0 
-490.915 -1564.11 0 -444.104 -1565.54 0 -439.752 -1564.1 0 
635.661 -1564.07 0 2513.68 -1564.02 0 -518.105 -1550.92 0 
-525.968 -1547.11 0 -407.102 -1553.3 0 -388.366 -1547.1 0 
634.202 -1547.07 0 2514.72 -1547.02 0 -555.105 -1532.97 0 
-561.021 -1530.11 0 -370.101 -1541.06 0 -336.981 -1530.1 0 
630.709 -1530.07 0 1307.52 -1530.05 0 1331.95 -1537.81 0 
1368.95 -1538.97 0 1405.95 -1540.13 0 1442.95 -1541.29 0 
1479.95 -1542.45 0 1516.95 -1543.61 0 1553.95 -1544.77 0 
1590.95 -1545.79 0 1612.06 -1530.05 0 2515.77 -1530.02 0 
-592.105 -1515.03 0 -596.075 -1513.11 0 -333.099 -1528.81 0 
-296.097 -1516.57 0 -285.595 -1513.1 0 626.15 -1513.07 0 
628.927 -1522.05 0 1264.35 -1513.05 0 1294.95 -1525.51 0 
1627.95 -1513.96 0 1628.86 -1513.05 0 2515.98 -1526.57 0 
2516.81 -1513.02 0 -629.105 -1497.09 0 -631.128 -1496.1 0 
-259.095 -1504.33 0 -234.21 -1496.09 0 621.671 -1496.07 0 
1242.56 -1496.05 0 1257.95 -1510.45 0 1645.66 -1496.04 0 
2517.85 -1496.02 0 -666.105 -1479.14 0 -666.181 -1479.1 0 
-222.094 -1492.09 0 -185.092 -1479.84 0 -182.825 -1479.09 0 
617.983 -1479.07 0 1220.9 -1479.05 0 1220.95 -1479.1 0 
1662.47 -1479.04 0 2518.89 -1479.02 0 -701.234 -1462.1 0 
-148.09 -1467.6 0 -131.439 -1462.09 0 614.893 -1462.07 0 
1203.53 -1462.05 0 1664.96 -1476.52 0 1680.32 -1462.04 0 
2519.94 -1462.02 0 -703.105 -1461.2 0 -723.254 -1445.1 0 
-111.089 -1457.4 0 -74.0877 -1457.52 0 -55.4201 -1445.09 0 
611.828 -1445.07 0 1186.15 -1445.05 0 1697.88 -1445.04 0 
2520.98 -1445.02 0 -736.632 -1428.1 0 -37.0851 -1429.48 0 
-36.1084 -1428.08 0 608.052 -1428.07 0 1168.78 -1428.05 0 
1183.95 -1442.89 0 1701.96 -1441.02 0 1716.87 -1428.04 0 
2522.02 -1428.02 0 -740.104 -1423.25 0 -748.799 -1411.1 0 
-24.1698 -1411.08 0 604.276 -1411.07 0 1151.41 -1411.05 0 
1736.41 -1411.04 0 2523.06 -1411.01 0 -760.966 -1394.1 0 
-12.7264 -1394.08 0 600.5 -1394.07 0 1134.03 -1394.05 0 
1146.95 -1406.69 0 1738.96 -1408.81 0 1755.94 -1394.03 0 
2524.11 -1394.01 0 -773.133 -1377.1 0 -0.311573 -1377.08 0 
596.723 -1377.06 0 1116.66 -1377.05 0 1775.47 -1377.03 0 
2525.15 -1377.01 0 -777.102 -1371.56 0 -785.301 -1360.1 0 
-0.0809823 -1376.78 0 11.646 -1360.08 0 592.947 -1360.06 0 
1095.22 -1360.05 0 1109.95 -1370.95 0 1775.97 -1376.43 0 
1783.07 -1360.03 0 2524.89 -1360.01 0 -797.468 -1343.1 0 
23.5845 -1343.08 0 589.171 -1343.06 0 591.936 -1355.51 0 
1070.48 -1343.05 0 1072.95 -1344.75 0 1789.39 -1343.03 0 
2524.63 -1343.01 0 -809.635 -1326.1 0 35.5231 -1326.08 0 
585.395 -1326.06 0 1045.75 -1326.05 0 1795.72 -1326.03 0 
2523.6 -1326.01 0 -814.1 -1319.86 0 -821.802 -1309.1 0 
36.9231 -1324.08 0 47.4617 -1309.08 0 579.975 -1309.06 0 
1021.01 -1309.05 0 1035.95 -1319.32 0 1802.05 -1309.03 0 
2520.26 -1309.01 0 -833.969 -1292.1 0 59.4003 -1292.07 0 
570.434 -1292.06 0 997.398 -1292.05 0 998.951 -1293.89 0 
1808.38 -1292.03 0 2516.93 -1292.01 0 -846.136 -1275.1 0 
71.3388 -1275.07 0 563.919 -1275.06 0 983.018 -1275.05 0 
1812.97 -1279.68 0 1814.71 -1275.03 0 2515.99 -1287.24 0 
2513.59 -1275.01 0 -851.098 -1268.17 0 -858.303 -1258.1 0 
73.9272 -1271.39 0 83.2774 -1258.07 0 558.787 -1258.06 0 
968.565 -1258.05 0 1821.36 -1258.02 0 2510.25 -1258.01 0 
-870.47 -1241.1 0 95.216 -1241.07 0 554.535 -1241.06 0 
554.942 -1242.78 0 955.655 -1241.05 0 961.952 -1250.3 0 
1831.69 -1241.02 0 2506.92 -1241.01 0 -882.637 -1224.1 0 
107.155 -1224.07 0 550.519 -1224.06 0 944.083 -1224.05 0 
1842.05 -1224.02 0 2503.58 -1224 0 -888.096 -1216.47 0 
-894.804 -1207.1 0 110.931 -1218.69 0 118.09 -1207.07 0 
546.511 -1207.06 0 932.511 -1207.05 0 1849.98 -1211 0 
1852.41 -1207.02 0 2500.24 -1207 0 -906.972 -1190.09 0 
125.443 -1190.07 0 542.511 -1190.06 0 921.071 -1190.05 0 
924.955 -1195.94 0 1862.76 -1190.02 0 2496.91 -1190 0 
-919.139 -1173.09 0 130.585 -1173.07 0 538.518 -1173.05 0 
910.463 -1173.04 0 1873.12 -1173.02 0 2493.68 -1173 0 
-925.094 -1164.77 0 -931.306 -1156.09 0 133.483 -1156.06 0 
534.533 -1156.05 0 900.667 -1156.04 0 1883.48 -1156.02 0 
2492.14 -1156 0 -944.164 -1139.09 0 135.116 -1139.06 0 
530.555 -1139.05 0 891.671 -1139.04 0 1886.98 -1150.27 0 
1893.21 -1139.02 0 2491.31 -1139 0 -961.857 -1122.09 0 
136.749 -1122.06 0 526.585 -1122.05 0 882.674 -1122.04 0 
887.957 -1132.03 0 1901.57 -1122.01 0 2490.82 -1122 0 
-962.092 -1121.89 0 -981.577 -1105.09 0 138.382 -1105.06 0 
522.622 -1105.05 0 873.677 -1105.04 0 1908.88 -1105.01 0 
2490.32 -1105 0 -999.091 -1089.99 0 -1000.79 -1088.09 0 
140.015 -1088.06 0 518.666 -1088.05 0 864.68 -1088.04 0 
1915.02 -1088.01 0 2489.82 -1088 0 -1011.88 -1071.09 0 
141.648 -1071.06 0 514.604 -1071.05 0 517.95 -1084.97 0 
855.683 -1071.04 0 1920.78 -1071.01 0 2489.32 -1071 0 
-1015.86 -1054.09 0 147.942 -1055 0 148.314 -1054.06 0 
510.518 -1054.05 0 846.687 -1054.04 0 850.961 -1062.12 0 
1923.99 -1061.56 0 1926.55 -1054.01 0 2488.82 -1053.99 0 
-1018.23 -1037.09 0 155.122 -1037.06 0 506.432 -1037.05 0 
[...]
POINT_DATA 7223
SCALARS Pressure double
LOOKUP_TABLE default
3.0932710339 3.0932710339 3.0932710339 3.0932710339 3.0932710339 3.0932710339 3.0932710339 3.0932710339 3.0932710339 
3.0932710339 3.0932710339 3.0932710339 3.0932710339 3.0932710339 3.0932710339 3.0932710339 3.0932710339 3.0932710339 
3.0932710339 3.0932710339 3.0932710339 3.0932710339 3.0932710339 3.0932710339 3.0932710339 3.0932710339 3.0932710339 
3.0932710339 3.0932710339 3.0932710339 3.0932710339 3.0932710339 3.0932710339 3.0932710339 3.0932710339 3.0932710339 
3.0932710339 3.0932710339 3.0932710339 3.0932710339 3.0932710339 3.0932710339 3.0932710339 3.0932710339 3.0932710339 
3.0932710339 3.0932710339 3.0932710339 3.0932710339 3.0932710339 3.0932710339 3.0932710339 3.0932710339 3.0932710339 
3.0932710339 3.0932710339 3.0932710339 3.0932710339 3.0932710339 3.0932710339 3.0932710339 3.0932710339 3.0932710339 
3.0932710339 3.0932710339 3.0932710339 3.0932710339 3.0932710339 3.0932710339 3.0932710339 3.0932710339 3.0932710339 
3.0932710339 3.0932710339 3.0932710339 3.0932710339 3.0932710339 3.0932710339 3.0932710339 3.0932710339 3.0932710339 
3.0932710339 3.0932710339 3.0932710339 3.0932710339 3.0932710339 3.0932710339 3.0932710339 3.0932710339 3.0932710339 
3.0932710339 3.0932710339 3.0932710339 3.0932710339 3.0932710339 3.0932710339 3.0932710339 3.0932710339 3.0932710339 
3.0932710339 3.0932710339 3.0932710339 3.0932710339 3.0932710339 3.0932710339 3.0932710339 3.0932710339 3.0932710339 
3.0932710339 3.0932710339 3.0932710339 3.0932710339 3.0932710339 3.0932710339 3.0932710339 3.0932710339 3.0932710339 
3.0932710339 3.0932710339 3.0932710339 3.0932710339 3.0932710339 3.0932710339 3.0932710339 3.0932710339 3.0932710339 
3.0932710339 3.0932710339 3.0932710339 3.0932710339 3.0932710339 3.0932710339 3.0932710339 3.0932710339 3.0932710339 
3.0932710339 3.0932710339 3.0932710339 3.0932710339 3.0932710339 3.0932710339 3.0932710339 3.0932710339 3.0932710339 
3.0932710339 3.0932710339 3.0932710339 3.0932710339 3.0932710339 3.0932710339 3.0932710339 3.0932710339 3.0932710339 
3.0932710339 3.0932710339 3.0932710339 3.0932710339 3.0932710339 3.0932710339 3.0932710339 3.0932710339 3.0932710339 
3.0932710339 3.0932710339 3.0932710339 3.0932710339 3.0932710339 3.0932710339 3.0932710339 3.0932710339 3.0932710339 
3.0932710339 3.0932710339 3.0932710339 3.0932710339 3.0932710339 3.0932710339 3.0932710339 3.0932710339 3.0932710339 
3.0932710339 3.0932710339 3.0932710339 3.0932710339 3.0932710339 3.0932710339 3.0932710339 3.0932710339 3.0932710339 
3.0932710339 3.0932710339 3.0932710339 3.0932710339 3.0932710339 3.0932710339 3.0932710339 3.0932710339 3.0932710339 
3.0932710339 3.0932710339 3.0932710339 3.0932710339 3.0932710339 3.0932710339 3.0932710339 3.0932710339 3.0932710339 
3.0932710339 3.0932710339 3.0932710339 3.0932710339 3.0932710339 3.0932710339 3.0932710339 3.0932710339 3.0932710339 
3.0932710339 3.0932710339 3.0932710339 3.0932710339 3.0932710339 3.0932710339 3.0932710339 3.0932710339 3.0932710339 
3.0932710339 3.0932710339 3.0932710339 3.0932710339 3.0932710339 3.0932710339 3.0932710339 3.0932710339 3.0932710339 
3.0932710339 3.0932710339 3.0932710339 3.0932710339 3.0932710339 3.0932710339 3.0932710339 3.0932710339 3.0932710339 
3.0932710339 3.0932710339 3.0932710339 3.0932710339 3.0932710339 3.0932710339 3.0932710339 3.0932710339 3.0932710339 
3.0932710339 3.0932710339 3.0932710339 3.0932710339 3.0932710339 3.0932710339 3.0932710339 3.0932710339 3.0786768432 
3.0786768432 3.0786768432 3.0786768432 3.0932710339 3.0932710339 3.0786768432 3.0786768432 3.0786768432 3.0786768432 
3.0932710339 3.0932710339 3.0786768432 3.0786768432 3.0786768432 3.0786768432 3.0932710339 3.1078652246 3.1078652246 
3.1078652246 3.1078652246 3.1078652246 3.1078652246 3.1078652246 3.1078652246 3.1078652246 3.1078652246 3.0932710339 
3.0786768432 3.0786768432 3.0786768432 3.0786768432 3.0786768432 3.0932710339 3.0932710339 3.1078652246 3.1078652246 
3.1078652246 3.1078652246 3.0932710339 3.0932710339 3.0786768432 3.0786768432 3.0786768432 3.0786768432 3.0932710339 
3.1078652246 3.1078652246 3.1078652246 3.0932710339 3.0786768432 3.0786768432 3.0786768432 3.0786768432 3.0786768432 
3.0932710339 3.1078652246 3.1078652246 3.1078652246 3.0932710339 3.0786768432 3.0786768432 3.0786768432 3.0932710339 
3.1078652246 3.1078652246 3.1078652246 3.0932710339 3.0786768432 3.0786768432 3.0786768432 3.0786768432 3.0786768432 
3.0932710339 3.1078652246 3.1078652246 3.0932710339 3.0786768432 3.0786768432 3.0786768432 3.0932710339 3.1078652246 
3.1078652246 3.1078652246 3.1078652246 3.0932710339 3.0786768432 3.0786768432 3.0786768432 3.0932710339 3.1078652246 
3.1078652246 3.0932710339 3.0786768432 3.0786768432 3.0932710339 3.1078652246 3.1078652246 3.1078652246 3.1078652246 
3.0932710339 3.0786768432 3.0786768432 3.0932710339 3.1078652246 3.1078652246 3.0932710339 3.0786768432 3.0786768432 
3.0786768432 3.0786768432 3.0932710339 3.1078652246 3.1078652246 3.1078652246 3.1078652246 3.0932710339 3.0786768432 
3.0786768432 3.0932710339 3.0932710339 3.1078652246 3.1078652246 3.1078652246 3.0932710339 3.0786768432 3.0786768432 
3.0932710339 3.1078652246 3.1078652246 3.0932710339 3.0786768432 3.0786768432 3.0786768432 3.0786768432 3.0932710339 
3.1078652246 3.1078652246 3.1078652246 3.0932710339 3.0786768432 3.0786768432 3.0932710339 3.1078652246 3.1078652246 
3.1078652246 3.0932710339 3.0786768432 3.0786768432 3.0932710339 3.1078652246 3.1078652246 3.1078652246 3.0932710339 
3.0932710339 3.0786768432 3.0786768432 3.0786768432 3.0786768432 3.0932710339 3.1078652246 3.1078652246 3.0932710339 
3.0786768432 3.0786768432 3.0932710339 3.0932710339 3.1078652246 3.1078652246 3.1078652246 3.0932710339 3.0786768432 
3.0786768432 3.0932710339 3.1078652246 3.1078652246 3.0932710339 3.0786768432 3.0786768432 3.0786768432 3.0786768432 
3.0932710339 3.1078652246 3.1078652246 3.1078652246 3.0932710339 3.0786768432 3.0786768432 3.0932710339 3.1078652246 
3.1078652246 3.1078652246 3.0932710339 3.0786768432 3.0786768432 3.0932710339 3.1078652246 3.1078652246 3.0932710339 
3.0786768432 3.0786768432 3.0786768432 3.0932710339 3.1078652246 3.1078652246 3.0932710339 3.0786768432 3.0786768432 
3.0932710339 3.1078652246 3.1078652246 3.1078652246 3.0932710339 3.0786768432 3.0786768432 3.0932710339 3.1078652246 
3.1078652246 3.1078652246 3.0932710339 3.0786768432 3.0786768432 3.0786768432 3.0932710339 3.1078652246 3.1078652246 
3.0932710339 3.0786768432 3.0786768432 3.0786768432 3.0932710339 3.1078652246 3.1078652246 3.0932710339 3.0786768432 
3.0786768432 3.0932710339 3.0932710339 3.1078652246 3.1078652246 3.0932710339 3.0786768432 3.0786768432 3.0786768432 
3.0932710339 3.1078652246 3.1078652246 3.1078652246 3.1078652246 3.0932710339 3.0786768432 3.0786768432 3.0932710339 
3.1078652246 3.1078652246 3.0932710339 3.0786768432 3.0786768432 3.0932710339 3.1078652246 3.1078652246 3.0932710339 
3.0786768432 3.0786768432 3.0932710339 3.1078652246 3.1078652246 3.1078652246 3.0932710339 3.0786768432 3.0786768432 
3.0932710339 3.1078652246 3.1078652246 3.0932710339 3.0786768432 3.0786768432 3.0932710339 3.1078652246 3.1078652246 
3.1078652246 3.0932710339 3.0786768432 3.0786768432 3.0786768432 3.0932710339 3.1078652246 3.1078652246 3.1078652246 
3.0932710339 3.0786768432 3.0786768432 3.0932710339 3.1078652246 3.1078652246 3.0932710339 3.0786768432 3.0786768432 
3.0932710339 3.1078652246 3.1078652246 3.0932710339 3.0932710339 3.0786768432 3.0786768432 3.0786768432 3.0932710339 
3.0932710339 3.1078652246 3.1078652246 3.1078652246 3.0932710339 3.0786768432 3.0786768432 3.0932710339 3.1078652246 
3.1224594153 3.1224594153 3.1224594153 3.1224594153 3.1224594153 3.1224594153 3.1078652246 3.0932710339 3.0786768432 
3.0786768432 3.0932710339 3.1078652246 3.1224594153 3.1224594153 3.1224594153 3.1224594153 3.1224594153 3.1224594153 
3.1078652246 3.0932710339 3.0786768432 3.0786768432 3.0932710339 3.1078652246 3.1224594153 3.1224594153 3.1224594153 
3.1224594153 3.1078652246 3.0932710339 3.0786768432 3.0786768432 3.0932710339 3.1078652246 3.1078652246 3.1224594153 
3.1224594153 3.1224594153 3.1224594153 3.1078652246 3.1078652246 3.0932710339 3.0786768432 3.0786768432 3.0932710339 
3.1078652246 3.1224594153 3.1224594153 3.1078652246 3.0932710339 3.0786768432 3.0786768432 3.0932710339 3.1078652246 
3.1224594153 3.1224594153 3.1224594153 3.1224594153 3.1078652246 3.0932710339 3.0786768432 3.0786768432 3.0932710339 
3.0932710339 3.1078652246 3.1224594153 3.1224594153 3.1078652246 3.0932710339 3.0786768432 3.0786768432 3.0786768432 
3.0786768432 3.0786768432 3.0786768432 3.0932710339 3.1078652246 3.1078652246 3.1224594153 3.1224594153 3.1224594153 
3.1078652246 3.0932710339 3.0786768432 3.0786768432 3.0786768432 3.0786768432 3.0786768432 3.0932710339 3.1078652246 
3.1224594153 3.1224594153 3.1224594153 3.1224594153 3.1078652246 3.0932710339 3.0786768432 3.0786768432 3.0786768432 
3.0786768432 3.0786768432 3.0786768432 3.0640826525 3.0640826525 3.0640826525 3.0640826525 3.0640826525 3.0640826525 
3.0640826525 3.0786768432 3.0786768432 3.0932710339 3.1078652246 3.1224594153 3.1224594153 3.1224594153 3.1078652246 
3.0932710339 3.0786768432 3.0786768432 3.0786768432 3.0786768432 3.0786768432 3.0640826525 3.0640826525 3.0640826525 
3.0640826525 3.0786768432 3.0932710339 3.1078652246 3.1224594153 3.1224594153 3.1078652246 3.1078652246 3.0932710339 
3.0786768432 3.0786768432 3.0786768432 3.0786768432 3.0786768432 3.0786768432 3.0640826525 3.0640826525 3.0640826525 
3.0786768432 3.0932710339 3.1078652246 3.1078652246 3.1224594153 3.1224594153 3.1224594153 3.1224594153 3.1078652246 
3.0932710339 3.0786768432 3.0786768432 3.0786768432 3.0786768432 3.0786768432 3.0640826525 3.0640826525 3.0640826525 
3.0640826525 3.0786768432 3.0932710339 3.1078652246 3.1224594153 3.1224594153 3.1078652246 3.0932710339 3.0786768432 
3.0786768432 3.0786768432 3.0640826525 3.0640826525 3.0786768432 3.0932710339 3.1078652246 3.1224594153 3.1224594153 
3.1224594153 3.1078652246 3.0932710339 3.0786768432 3.0786768432 3.0786768432 3.0786768432 3.0640826525 3.0640826525 
3.0640826525 3.0640826525 3.0786768432 3.0932710339 3.1078652246 3.1224594153 3.1224594153 3.1078652246 3.0932710339 
3.0786768432 3.0786768432 3.0786768432 3.0786768432 3.0786768432 3.0640826525 3.0640826525 3.0786768432 3.0932710339 
3.1078652246 3.1224594153 3.1224594153 3.1224594153 3.1224594153 3.1078652246 3.0932710339 3.0786768432 3.0786768432 
3.0786768432 3.0786768432 3.0786768432 3.0640826525 3.0640826525 3.0640826525 3.0786768432 3.0932710339 3.0932710339 
3.1078652246 3.1078652246 3.1224594153 3.1224594153 3.1078652246 3.0932710339 3.0786768432 3.0786768432 3.0786768432 
3.0786768432 3.0640826525 3.0640826525 3.0640826525 3.0786768432 3.0932710339 3.1078652246 3.1224594153 3.1224594153 
3.1078652246 3.0932710339 3.0786768432 3.0786768432 3.0786768432 3.0640826525 3.0640826525 3.0786768432 3.0932710339 
3.1078652246 3.1224594153 3.1224594153 3.1224594153 3.1078652246 3.1078652246 3.0932710339 3.0786768432 3.0786768432 
3.0786768432 3.0786768432 3.0640826525 3.0640826525 3.0640826525 3.0640826525 3.0786768432 3.0932710339 3.1078652246 
3.1224594153 3.1224594153 3.1224594153 3.1078652246 3.0932710339 3.0786768432 3.0786768432 3.0786768432 3.0640826525 
3.0640826525 3.0786768432 3.0932710339 3.1078652246 3.1078652246 3.1224594153 3.1224594153 3.137053606 3.137053606 
3.137053606 3.1224594153 3.1078652246 3.0932710339 3.0786768432 3.0786768432 3.0786768432 3.0640826525 3.0640826525 
3.0786768432 3.0932710339 3.1078652246 3.1224594153 3.137053606 3.137053606 3.137053606 3.137053606 3.1224594153 
3.1078652246 3.0932710339 3.0786768432 3.0786768432 3.0786768432 3.0640826525 3.0640826525 3.0786768432 3.0932710339 
3.1078652246 3.1224594153 3.137053606 3.137053606 3.137053606 3.1224594153 3.1078652246 3.0932710339 3.0786768432 
3.0786768432 3.0786768432 3.0786768432 3.0786768432 3.0640826525 3.0640826525 3.0786768432 3.0932710339 3.1078652246 
3.1078652246 3.1224594153 3.1224594153 3.137053606 3.137053606 3.137053606 3.137053606 3.1224594153 3.1224594153 
3.1078652246 3.0932710339 3.0786768432 3.0786768432 3.0786768432 3.0640826525 3.0640826525 3.0640826525 3.0640826525 
3.0786768432 3.0932710339 3.1078652246 3.1224594153 3.137053606 3.137053606 3.137053606 3.1224594153 3.1078652246 
3.0932710339 3.0786768432 3.0786768432 3.0786768432 3.0786768432 3.0640826525 3.0640826525 3.0786768432 3.0932710339 
3.0932710339 3.1078652246 3.1224594153 3.1224594153 3.137053606 3.137053606 3.137053606 3.137053606 3.1224594153 
3.1078652246 3.0932710339 3.0786768432 3.0786768432 3.0786768432 3.0640826525 3.0640826525 3.0786768432 3.0932710339 
3.1078652246 3.1224594153 3.137053606 3.137053606 3.1224594153 3.1078652246 3.0932710339 3.0786768432 3.0786768432 
3.0786768432 3.0640826525 3.0494884618 3.0494884618 3.0494884618 3.0494884618 3.0494884618 3.0640826525 3.0786768432 
3.0932710339 3.1078652246 3.1224594153 3.137053606 3.137053606 3.137053606 3.137053606 3.1224594153 3.1078652246 
3.0932710339 3.0932710339 3.0786768432 3.0786768432 3.0786768432 3.0640826525 3.0494884618 3.0494884618 3.0494884618 
3.0494884618 3.0640826525 3.0786768432 3.0932710339 3.1078652246 3.1078652246 3.1224594153 3.1224594153 3.137053606 
3.137053606 3.137053606 3.1224594153 3.1078652246 3.0932710339 3.0786768432 3.0786768432 3.0786768432 3.0786768432 
3.0786768432 3.0640826525 3.0640826525 3.0494884618 3.0494884618 3.0494884618 3.0640826525 3.0786768432 3.0932710339 
3.1078652246 3.1224594153 3.137053606 3.137053606 3.1224594153 3.1078652246 3.0932710339 3.0786768432 3.0786768432 
3.0786768432 3.0640826525 3.0494884618 3.0494884618 3.0494884618 3.0640826525 3.0786768432 3.0932710339 3.0932710339 
3.1078652246 3.1224594153 3.137053606 3.137053606 3.137053606 3.137053606 3.1224594153 3.1078652246 3.0932710339 
3.0786768432 3.0786768432 3.0786768432 3.0786768432 3.0640826525 3.0494884618 3.0494884618 3.0494884618 3.0640826525 
3.0786768432 3.0932710339 3.1078652246 3.1078652246 3.1224594153 3.1224594153 3.137053606 3.137053606 3.1224594153 
3.1078652246 3.0932710339 3.0786768432 3.0786768432 3.0786768432 3.0786768432 3.0640826525 3.0494884618 3.0494884618 
3.0640826525 3.0786768432 3.0932710339 3.1078652246 3.1224594153 3.137053606 3.137053606 3.137053606 3.1224594153 
3.1078652246 3.0932710339 3.0786768432 3.0786768432 3.0786768432 3.0640826525 3.0494884618 3.0494884618 3.0494884618 
3.0494884618 3.0640826525 3.0786768432 3.0786768432 3.0932710339 3.1078652246 3.1224594153 3.137053606 3.137053606 
3.1224594153 3.1078652246 3.0932710339 3.0786768432 3.0786768432 3.0786768432 3.0786768432 3.0640826525 3.0494884618 
3.0494884618 3.0640826525 3.0786768432 3.0932710339 3.1078652246 3.1078652246 3.1224594153 3.137053606 3.137053606 
3.1224594153 3.1224594153 3.1078652246 3.0932710339 3.0786768432 3.0786768432 3.0786768432 3.0640826525 3.0494884618 
3.0494884618 3.0640826525 3.0786768432 3.0932710339 3.1078652246 3.1224594153 3.1224594153 3.137053606 3.137053606 
3.137053606 3.137053606 3.1224594153 3.1078652246 3.0932710339 3.0786768432 3.0786768432 3.0786768432 3.0786768432 
3.0786768432 3.0640826525 3.0494884618 3.0494884618 3.0494884618 3.0640826525 3.0786768432 3.0932710339 3.0932710339 
3.1078652246 3.1224594153 3.137053606 3.137053606 3.1224594153 3.1224594153 3.1078652246 3.0932710339 3.0786768432 
3.0786768432 3.0786768432 3.0786768432 3.0640826525 3.0640826525 3.0494884618 3.0348942711 3.0348942711 3.0348942711 
3.0348942711 3.0494884618 3.0640826525 3.0786768432 3.0932710339 3.1078652246 3.1224594153 3.137053606 3.137053606 
3.1224594153 3.1078652246 3.0932710339 3.0786768432 3.0786768432 3.0786768432 3.0786768432 3.0640826525 3.0494884618 
3.0348942711 3.0348942711 3.0348942711 3.0348942711 3.0494884618 3.0494884618 3.0640826525 3.0786768432 3.0932710339 
3.1078652246 3.1224594153 3.137053606 3.137053606 3.137053606 3.137053606 3.1224594153 3.1078652246 3.0932710339 
3.0786768432 3.0640826525 3.0640826525 3.0640826525 3.0640826525 3.0640826525 3.0640826525 3.0786768432 3.0786768432 
3.0786768432 3.0640826525 3.0494884618 3.0348942711 3.0348942711 3.0348942711 3.0494884618 3.0640826525 3.0786768432 
3.0932710339 3.1078652246 3.1078652246 3.1224594153 3.137053606 3.137053606 3.1224594153 3.1078652246 3.0932710339 
3.0932710339 3.0786768432 3.0640826525 3.0640826525 3.0640826525 3.0786768432 3.0786768432 3.0786768432 3.0786768432 
3.0640826525 3.0494884618 3.0348942711 3.0348942711 3.0348942711 3.0494884618 3.0640826525 3.0786768432 3.0932710339 
3.1078652246 3.1224594153 3.137053606 3.137053606 3.1224594153 3.1078652246 3.0932710339 3.0786768432 3.0786768432 
3.0640826525 3.0640826525 3.0640826525 3.0786768432 3.0786768432 3.0786768432 3.0786768432 3.0786768432 3.0786768432 
3.0640826525 3.0494884618 3.0348942711 3.0348942711 3.0494884618 3.0640826525 3.0786768432 3.0932710339 3.1078652246 
3.1224594153 3.137053606 3.137053606 3.1224594153 3.1078652246 3.0932710339 3.0786768432 3.0640826525 3.0640826525 
3.0640826525 3.0640826525 3.0786768432 3.0786768432 3.0786768432 3.0640826525 3.0494884618 3.0494884618 3.0348942711 
3.0348942711 3.0203000804 3.0203000804 3.0203000804 3.0203000804 3.0348942711 3.0348942711 3.0494884618 3.0640826525 
3.0786768432 3.0786768432 3.0932710339 3.1078652246 3.1224594153 3.137053606 3.137053606 2.9473291268 2.9473291268 
2.9619233175 2.9619233175 2.9765175082 2.9765175082 2.991111699 2.991111699 3.0057058897 3.0057058897 3.0203000804 
3.0203000804 3.0348942711 3.0348942711 3.0494884618 3.0494884618 3.0640826525 3.0640826525 3.0786768432 3.0786768432 
3.0932710339 3.0932710339 3.1078652246 3.1078652246 3.1224594153 3.1224594153 3.137053606 3.137053606 2.9473291268 
2.9619233175 2.9765175082 2.991111699 3.0057058897 3.0203000804 3.0348942711 3.0494884618 3.0640826525 3.0786768432 
3.0932710339 3.1078652246 3.1224594153 3.137053606 2.9473291268 2.9619233175 2.9765175082 2.991111699 3.0057058897 
3.0203000804 3.0348942711 3.0494884618 3.0640826525 3.0786768432 3.0932710339 3.1078652246 3.1224594153 3.137053606 
2.9473291268 2.9619233175 2.9765175082 2.991111699 3.0057058897 3.0203000804 3.0348942711 3.0494884618 3.0640826525 
3.0786768432 3.0932710339 3.1078652246 3.1224594153 3.137053606 2.9473291268 2.9619233175 2.9765175082 2.991111699 
3.0057058897 3.0203000804 3.0348942711 3.0494884618 3.0640826525 3.0786768432 3.0932710339 3.1078652246 3.1224594153 
3.137053606 2.9473291268 2.9619233175 2.9765175082 2.991111699 3.0057058897 3.0203000804 3.0348942711 3.0494884618 
3.0640826525 3.0786768432 3.0932710339 3.1078652246 3.1224594153 3.137053606 2.9473291268 2.9619233175 2.9765175082 
2.991111699 3.0057058897 3.0203000804 3.0348942711 3.0494884618 3.0640826525 3.0786768432 3.0932710339 3.1078652246 
3.1224594153 3.137053606 2.9473291268 2.9619233175 2.9765175082 2.991111699 3.0057058897 3.0203000804 3.0348942711 
3.0494884618 3.0640826525 3.0786768432 3.0932710339 3.1078652246 3.1224594153 3.137053606 2.9473291268 2.9619233175 
2.9765175082 2.991111699 3.0057058897 3.0203000804 3.0348942711 3.0494884618 3.0640826525 3.0786768432 3.0932710339 
3.1078652246 3.1224594153 3.137053606 2.9473291268 2.9619233175 2.9765175082 2.991111699 3.0057058897 3.0203000804 
3.0348942711 3.0494884618 3.0640826525 3.0786768432 3.0932710339 3.1078652246 3.1224594153 3.137053606 3.137053606 
3.137053606 3.1224594153 3.1078652246 3.0932710339 3.0786768432 3.0640826525 3.0640826525 3.0786768432 3.0786768432 
3.0786768432 3.0640826525 3.0494884618 3.0348942711 3.0203000804 3.0203000804 3.0203000804 3.0348942711 3.0494884618 
3.0640826525 3.0786768432 3.0932710339 3.1078652246 2.9473291268 2.9473291268 2.9619233175 2.9619233175 2.9765175082 
2.9765175082 2.991111699 2.991111699 3.0057058897 3.0057058897 3.0203000804 3.0203000804 3.0348942711 3.0348942711 
3.0494884618 3.0494884618 3.0640826525 3.0640826525 3.0786768432 3.0786768432 3.0932710339 3.0932710339 3.1078652246 