# vtk DataFile Version 4.2
vtk output
ASCII
DATASET POLYDATA
POINTS 6341 float
2461.78 -3146.16 5800 2464.84 -3152.32 5800 2493.84 -3155.7 5800 
2512.65 -3146.16 5800 2455.77 -3133.16 5800 2522.85 -3140.84 5800 
2537.59 -3133.15 5800 2450.15 -3120.16 5800 2551.85 -3125.72 5800 
2562.54 -3120.15 5800 2444.53 -3107.15 5800 2580.85 -3110.6 5800 
2587.48 -3107.15 5800 2438.91 -3094.15 5800 2609.85 -3095.49 5800 
2612.42 -3094.15 5800 2433.29 -3081.15 5800 2435.85 -3087.07 5800 
2637.36 -3081.15 5800 2427.67 -3068.15 5800 2638.85 -3080.37 5800 
2662.3 -3068.14 5800 2422.05 -3055.15 5800 2667.86 -3065.25 5800 
2687.24 -3055.14 5800 2416.42 -3042.15 5800 2696.86 -3050.13 5800 
2712.18 -3042.14 5800 2410.8 -3029.15 5800 2725.86 -3035.01 5800 
2737.12 -3029.14 5800 2405.18 -3016.15 5800 2406.85 -3020.01 5800 
2754.86 -3019.89 5800 2762.06 -3016.14 5800 2399.56 -3003.15 5800 
2783.86 -3004.77 5800 2787 -3003.14 5800 2393.94 -2990.15 5800 
2805.8 -2990.13 5800 2388.32 -2977.15 5800 2812.87 -2980.53 5800 
2814.31 -2977.13 5800 2382.7 -2964.15 5800 2819.8 -2964.13 5800 
2377.07 -2951.15 5800 2377.85 -2952.95 5800 2825.29 -2951.13 5800 
2371.45 -2938.14 5800 2830.78 -2938.13 5800 2365.83 -2925.14 5800 
2836.28 -2925.13 5800 2360.21 -2912.14 5800 2841.77 -2912.13 5800 
2354.59 -2899.14 5800 2841.87 -2911.88 5800 2847.26 -2899.12 5800 
2348.97 -2886.14 5800 2852.76 -2886.12 5800 2343.34 -2873.14 5800 
2348.86 -2885.89 5800 2858.25 -2873.12 5800 2337.72 -2860.14 5800 
2863.74 -2860.12 5800 2332.1 -2847.14 5800 2869.24 -2847.12 5800 
2326.48 -2834.14 5800 2870.88 -2843.23 5800 2874.73 -2834.12 5800 
2320.86 -2821.14 5800 2880.22 -2821.12 5800 2315.24 -2808.14 5800 
2319.86 -2818.84 5800 2885.72 -2808.12 5800 2309.62 -2795.14 5800 
2891.21 -2795.12 5800 2303.99 -2782.13 5800 2896.7 -2782.11 5800 
2290.77 -2769.13 5800 2290.87 -2769.21 5800 2899.89 -2774.58 5800 
2902.2 -2769.11 5800 2270.51 -2756.13 5800 2907.69 -2756.11 5800 
2250.24 -2743.13 5800 2261.87 -2750.59 5800 2913.18 -2743.11 5800 
2229.98 -2730.13 5800 2232.87 -2731.98 5800 2918.68 -2730.11 5800 
2209.72 -2717.13 5800 2924.17 -2717.11 5800 2189.46 -2704.13 5800 
2203.87 -2713.38 5800 2928.89 -2705.93 5800 2929.66 -2704.11 5800 
2167.61 -2691.13 5800 2174.87 -2695.07 5800 2935.16 -2691.11 5800 
2143.3 -2678.13 5800 2145.87 -2679.5 5800 2940.48 -2678.1 5800 
2119 -2665.13 5800 2945.65 -2665.1 5800 2094.69 -2652.13 5800 
2116.87 -2663.99 5800 2950.64 -2652.1 5800 2070.38 -2639.13 5800 
2087.87 -2648.48 5800 2955.48 -2639.1 5800 2046.07 -2626.13 5800 
2058.87 -2632.97 5800 2957.9 -2632.6 5800 2960.32 -2626.1 5800 
2021.77 -2613.13 5800 2029.87 -2617.47 5800 2965.16 -2613.1 5800 
1997.46 -2600.13 5800 2000.87 -2601.96 5800 2970 -2600.1 5800 
1983.13 -2587.13 5800 2974.84 -2587.1 5800 1979.67 -2574.13 5800 
2979.68 -2574.1 5800 1978.05 -2561.13 5800 2984.51 -2561.09 5800 
1977.11 -2548.13 5800 2986.91 -2554.67 5800 2989.35 -2548.09 5800 
1977.37 -2535.13 5800 2994.19 -2535.09 5800 1977.72 -2522.13 5800 
3003.02 -2522.09 5800 1978.07 -2509.12 5800 3014.55 -2509.09 5800 
1978.43 -2496.12 5800 3015.91 -2507.71 5800 3027.36 -2496.09 5800 
1978.78 -2483.12 5800 3040.17 -2483.09 5800 1979.14 -2470.12 5800 
3044.91 -2478.27 5800 3052.98 -2470.08 5800 1979.49 -2457.12 5800 
3065.79 -2457.08 5800 1979.84 -2444.12 5800 3073.92 -2448.83 5800 
3078.6 -2444.08 5800 1980.2 -2431.12 5800 3091.41 -2431.08 5800 
1980.55 -2418.12 5800 3102.92 -2419.39 5800 3104.21 -2418.08 5800 
1980.91 -2405.12 5800 3117.02 -2405.08 5800 1981.26 -2392.12 5800 
3129.83 -2392.08 5800 1981.61 -2379.11 5800 3131.92 -2389.95 5800 
3142.64 -2379.07 5800 1981.97 -2366.11 5800 3155.45 -2366.07 5800 
1982.32 -2353.11 5800 3160.93 -2360.52 5800 3168.26 -2353.07 5800 
1982.68 -2340.11 5800 3181.07 -2340.07 5800 1983.03 -2327.11 5800 
3189.93 -2331.08 5800 3193.88 -2327.07 5800 1983.39 -2314.11 5800 
3207.07 -2314.07 5800 1983.74 -2301.11 5800 3211.53 -2301.07 5800 
1984.09 -2288.11 5800 3214.01 -2288.07 5800 1984.45 -2275.11 5800 
3214.94 -2275.06 5800 1984.8 -2262.11 5800 3215.76 -2262.06 5800 
1985.16 -2249.1 5800 3216.57 -2249.06 5800 1985.51 -2236.1 5800 
3217.39 -2236.06 5800 1985.86 -2223.1 5800 3218.2 -2223.06 5800 
1986.22 -2210.1 5800 3218.94 -2211.21 5800 3219.01 -2210.06 5800 
1986.57 -2197.1 5800 3219.83 -2197.06 5800 1986.99 -2184.1 5800 
3220.64 -2184.06 5800 1987.44 -2171.1 5800 3221.45 -2171.06 5800 
1987.87 -2158.1 5800 3222.27 -2158.05 5800 1988.31 -2145.1 5800 
3223.08 -2145.05 5800 1988.84 -2132.1 5800 3223.9 -2132.05 5800 
1989.38 -2119.09 5800 3224.71 -2119.05 5800 1989.91 -2106.09 5800 
3225.52 -2106.05 5800 1990.45 -2093.09 5800 3226.34 -2093.05 5800 
1990.99 -2080.09 5800 3227.15 -2080.05 5800 1991.53 -2067.09 5800 
3227.96 -2067.05 5800 1992.07 -2054.09 5800 3228.78 -2054.05 5800 
1992.6 -2041.09 5800 3229.59 -2041.05 5800 1992.32 -2028.09 5800 
3230.41 -2028.04 5800 1989.48 -2015.09 5800 3231.22 -2015.04 5800 
1986.61 -2002.09 5800 3232.03 -2002.04 5800 1983.74 -1989.08 5800 
3232.85 -1989.04 5800 1980.88 -1976.08 5800 3233.66 -1976.04 5800 
1978.01 -1963.08 5800 3234.47 -1963.04 5800 1975.14 -1950.08 5800 
3235.29 -1950.04 5800 1972.27 -1937.08 5800 3236 -1937.04 5800 
1969.4 -1924.08 5800 1971.92 -1935.5 5800 3236.66 -1924.04 5800 
1966.53 -1911.08 5800 3237.21 -1911.04 5800 1963.66 -1898.08 5800 
3237.75 -1898.03 5800 1960.79 -1885.08 5800 3238.3 -1885.03 5800 
1957.92 -1872.08 5800 3238.85 -1872.03 5800 1955.05 -1859.08 5800 
3239.39 -1859.03 5800 1952.18 -1846.07 5800 3239.94 -1846.03 5800 
1949.31 -1833.07 5800 3240.48 -1833.03 5800 1946.44 -1820.07 5800 
3241.03 -1820.03 5800 1943.58 -1807.07 5800 3241.58 -1807.03 5800 
1940.71 -1794.07 5800 1942.93 -1804.14 5800 3242.12 -1794.03 5800 
1937.84 -1781.07 5800 3242.67 -1781.03 5800 1936.65 -1768.07 5800 
3243.21 -1768.02 5800 1936.13 -1755.07 5800 3243.76 -1755.02 5800 
1936.49 -1742.07 5800 3244.31 -1742.02 5800 1940.01 -1729.07 5800 
3244.85 -1729.02 5800 1942.93 -1718.26 5800 1943.58 -1716.06 5800 
3245.4 -1716.02 5800 1947.05 -1703.06 5800 3245.95 -1703.02 5800 
1950.57 -1690.06 5800 3246.49 -1690.02 5800 1954.1 -1677.06 5800 
3247.04 -1677.02 5800 1957.62 -1664.06 5800 3247.58 -1664.02 5800 
1961.14 -1651.06 5800 3247.98 -1654.47 5800 3248.12 -1651.02 5800 
1964.66 -1638.06 5800 3248.62 -1638.01 5800 1968.18 -1625.06 5800 
3249.11 -1625.01 5800 1971.71 -1612.06 5800 3249.58 -1612.01 5800 
1971.94 -1611.17 5800 1975.32 -1599.05 5800 3250.05 -1599.01 5800 
1978.93 -1586.05 5800 3250.5 -1586.01 5800 1982.53 -1573.05 5800 
3260.55 -1573.01 5800 1986.12 -1560.05 5800 3263.35 -1560.01 5800 
1989.69 -1547.05 5800 3264.35 -1547.01 5800 1993.25 -1534.05 5800 
3265.23 -1534.01 5800 1996.8 -1521.05 5800 3266.66 -1521 5800 
2000.34 -1508.05 5800 3267.06 -1508 5800 2000.95 -1505.8 5800 
2003.92 -1495.05 5800 3267.46 -1495 5800 2005.52 -1482.04 5800 
3267.86 -1482 5800 2006.57 -1469.04 5800 3268.25 -1469 5800 
2007.8 -1456.04 5800 3268.65 -1456 5800 2008.99 -1443.04 5800 
3269.05 -1443 5800 2010.13 -1430.04 5800 3269.45 -1430 5800 
2011.42 -1417.04 5800 3269.84 -1417 5800 2012.7 -1404.04 5800 
3270.24 -1404 5800 2013.99 -1391.04 5800 3270.64 -1390.99 5800 
2015.27 -1378.04 5800 3271.04 -1377.99 5800 2016.56 -1365.04 5800 
3271.44 -1364.99 5800 2017.84 -1352.03 5800 3271.83 -1351.99 5800 
2019.12 -1339.03 5800 3272.23 -1338.99 5800 2020.37 -1326.03 5800 
3272.63 -1325.99 5800 2021.34 -1313.03 5800 3273.03 -1312.99 5800 
2022.27 -1300.03 5800 3273.43 -1299.99 5800 2023.21 -1287.03 5800 
3273.82 -1286.99 5800 2024.15 -1274.03 5800 3274.22 -1273.99 5800 
2025.08 -1261.03 5800 3274.62 -1260.98 5800 2026.02 -1248.03 5800 
3275.02 -1247.98 5800 2026.96 -1235.03 5800 3275.41 -1234.98 5800 
2027.89 -1222.02 5800 3275.81 -1221.98 5800 2028.83 -1209.02 5800 
3276.21 -1208.98 5800 2029.76 -1196.02 5800 3276.61 -1195.98 5800 
2029.98 -1193.04 5800 2030.49 -1183.02 5800 3277.01 -1182.98 5800 
2031.08 -1170.02 5800 3277.02 -1182.44 5800 3277.4 -1169.98 5800 
2031.58 -1157.02 5800 3277.8 -1156.98 5800 2032.02 -1144.02 5800 
3278.21 -1143.97 5800 2032.41 -1131.02 5800 3278.62 -1130.97 5800 
2032.76 -1118.02 5800 3279.03 -1117.97 5800 2032.01 -1105.01 5800 
3279.45 -1104.97 5800 2030.87 -1092.01 5800 3279.97 -1091.97 5800 
2029.62 -1079.01 5800 2029.99 -1081.95 5800 3280.07 -1078.97 5800 
2026.61 -1066.01 5800 3280.1 -1065.97 5800 2028.07 -1053.01 5800 
3280.3 -1052.97 5800 2029.99 -1044.96 5800 2030.89 -1040.01 5800 
3280.49 -1039.97 5800 2032.86 -1027.01 5800 3280.69 -1026.97 5800 
2034.94 -1014.01 5800 3280.87 -1013.96 5800 2037.02 -1001.01 5800 
3281.06 -1000.96 5800 2039.1 -988.006 5800 3281.26 -987.963 5800 
2041.17 -975.005 5800 3281.48 -974.962 5800 2043.25 -962.004 5800 
3281.7 -961.961 5800 2045.33 -949.003 5800 3281.93 -948.96 5800 
2047.41 -936.001 5800 2544.86 -935.984 5800 2552.02 -941.303 5800 
2581.02 -946.807 5800 2601.49 -935.982 5800 3281.55 -935.959 5800 
2049.4 -923 5800 2527.38 -922.984 5800 2610.02 -931.472 5800 
2639.02 -924.872 5800 2658.65 -922.979 5800 3281.23 -922.958 5800 
2051.38 -909.999 5800 2508.45 -909.984 5800 2523.02 -919.83 5800 
2668.02 -922.135 5800 2697.02 -920.076 5800 2726.02 -918.016 5800 
2746.86 -909.975 5800 3280.59 -909.957 5800 2053.43 -896.998 5800 
2489.66 -896.983 5800 2494.02 -899.445 5800 2755.03 -905.777 5800 
2759.4 -896.974 5800 3277.85 -896.956 5800 2055.54 -883.997 5800 
2469.24 -883.983 5800 2765.85 -883.973 5800 3277.04 -893.161 5800 
3274.96 -883.955 5800 2057.71 -870.996 5800 2448.86 -870.983 5800 
2465.02 -880.465 5800 2772.31 -870.971 5800 3272.35 -870.954 5800 
2059 -863.483 5800 2059.88 -857.995 5800 2427.87 -857.982 5800 
2436.02 -863.445 5800 2778.76 -857.97 5800 3269.6 -857.953 5800 
2061.96 -844.994 5800 2413.69 -844.982 5800 2784.03 -847.354 5800 
2785.22 -844.969 5800 3266.86 -844.952 5800 2064.04 -831.993 5800 
2405.19 -831.981 5800 2407.02 -836.489 5800 2791.67 -831.968 5800 
3264.11 -831.951 5800 2066.01 -818.992 5800 2399.57 -818.98 5800 
[...]
POINT_DATA 6341
SCALARS Pressure double
LOOKUP_TABLE default
3.0932710339 3.0932710339 3.0932710339 3.0932710339 3.0932710339 3.0932710339 3.0932710339 3.0932710339 3.0932710339 
3.0932710339 3.0932710339 3.0932710339 3.0932710339 3.0932710339 3.0932710339 3.0932710339 3.0932710339 3.0932710339 
3.0932710339 3.0932710339 3.0932710339 3.0932710339 3.0932710339 3.0932710339 3.0932710339 3.0932710339 3.0932710339 
3.0932710339 3.0932710339 3.0932710339 3.0932710339 3.0932710339 3.0932710339 3.0932710339 3.0932710339 3.0932710339 
3.0932710339 3.0932710339 3.0932710339 3.0932710339 3.0932710339 3.0932710339 3.0932710339 3.0932710339 3.0932710339 
3.0932710339 3.0932710339 3.0932710339 3.0932710339 3.0932710339 3.0932710339 3.0932710339 3.0932710339 3.0932710339 
3.0932710339 3.0932710339 3.0932710339 3.0932710339 3.0932710339 3.0932710339 3.0932710339 3.0932710339 3.0932710339 
3.0932710339 3.0932710339 3.0932710339 3.0932710339 3.0932710339 3.0932710339 3.0932710339 3.0932710339 3.0932710339 
3.0932710339 3.0932710339 3.0932710339 3.0932710339 3.0932710339 3.0932710339 3.0932710339 3.0932710339 3.0932710339 
3.0932710339 3.0932710339 3.0932710339 3.0932710339 3.0932710339 3.0932710339 3.0932710339 3.0932710339 3.0932710339 
3.0932710339 3.0932710339 3.0932710339 3.0932710339 3.0932710339 3.0932710339 3.0932710339 3.0932710339 3.0932710339 
3.0932710339 3.0932710339 3.0932710339 3.0932710339 3.0932710339 3.0932710339 3.0932710339 3.0932710339 3.0932710339 
3.0932710339 3.0932710339 3.0932710339 3.0932710339 3.0932710339 3.0932710339 3.0932710339 3.0932710339 3.0932710339 
3.0932710339 3.0932710339 3.0932710339 3.0932710339 3.0932710339 3.0932710339 3.0932710339 3.0932710339 3.0932710339 
3.0932710339 3.0932710339 3.0932710339 3.0932710339 3.0932710339 3.0932710339 3.0932710339 3.0932710339 3.0932710339 
3.0932710339 3.0932710339 3.0932710339 3.0932710339 3.0932710339 3.0932710339 3.0932710339 3.0932710339 3.0932710339 
3.0932710339 3.0932710339 3.0932710339 3.0932710339 3.0932710339 3.0932710339 3.0932710339 3.0932710339 3.0932710339 
3.0932710339 3.0932710339 3.0932710339 3.0932710339 3.0932710339 3.0932710339 3.0932710339 3.0932710339 3.0932710339 
3.0932710339 3.0932710339 3.0932710339 3.0932710339 3.0932710339 3.0932710339 3.0932710339 3.0932710339 3.0932710339 
3.0932710339 3.0932710339 3.0932710339 3.0932710339 3.0932710339 3.0932710339 3.0932710339 3.0932710339 3.0932710339 
3.0932710339 3.0932710339 3.0932710339 3.0932710339 3.0932710339 3.0932710339 3.0932710339 3.0932710339 3.0932710339 
3.0932710339 3.0932710339 3.0932710339 3.0932710339 3.0932710339 3.0932710339 3.0932710339 3.0932710339 3.0932710339 
3.0932710339 3.0932710339 3.0932710339 3.0932710339 3.0932710339 3.0932710339 3.0932710339 3.0932710339 3.0932710339 
3.0932710339 3.0932710339 3.0932710339 3.0932710339 3.0932710339 3.0932710339 3.0932710339 3.0932710339 3.0932710339 
3.0932710339 3.0932710339 3.0932710339 3.0932710339 3.0932710339 3.0932710339 3.0932710339 3.0932710339 3.0932710339 
3.0932710339 3.0932710339 3.0932710339 3.0932710339 3.0932710339 3.0932710339 3.0932710339 3.0932710339 3.0932710339 
3.0932710339 3.0932710339 3.0932710339 3.0932710339 3.0932710339 3.0932710339 3.0932710339 3.0932710339 3.0932710339 
3.0932710339 3.0932710339 3.0932710339 3.0932710339 3.0932710339 3.0932710339 3.0932710339 3.0932710339 3.0932710339 
3.0932710339 3.0932710339 3.0932710339 3.0932710339 3.0932710339 3.0932710339 3.0932710339 3.0932710339 3.0932710339 
3.0932710339 3.0932710339 3.0932710339 3.0932710339 3.0932710339 3.0932710339 3.0932710339 3.0932710339 3.0932710339 
3.0932710339 3.0932710339 3.0932710339 3.0932710339 3.0932710339 3.0932710339 3.0932710339 3.0932710339 3.0932710339 
3.0932710339 3.0932710339 3.0932710339 3.0932710339 3.0932710339 3.0932710339 3.0932710339 3.0932710339 3.0932710339 
3.0932710339 3.0932710339 3.0932710339 3.0932710339 3.0932710339 3.0932710339 3.0932710339 3.0932710339 3.0932710339 
3.0932710339 3.0932710339 3.0932710339 3.0932710339 3.0932710339 3.0932710339 3.0932710339 3.0932710339 3.0932710339 
3.0932710339 3.0932710339 3.0932710339 3.0932710339 3.0932710339 3.0932710339 3.0932710339 3.0932710339 3.0932710339 
3.0932710339 3.0932710339 3.0932710339 3.0932710339 3.0932710339 3.0932710339 3.0932710339 3.0932710339 3.0932710339 
3.0932710339 3.0932710339 3.0932710339 3.0932710339 3.0932710339 3.0932710339 3.0932710339 3.0932710339 3.0932710339 
3.0932710339 3.0932710339 3.0932710339 3.0932710339 3.0932710339 3.0932710339 3.0932710339 3.0932710339 3.0932710339 
3.0932710339 3.0932710339 3.0932710339 3.0932710339 3.0932710339 3.0932710339 3.0932710339 3.0932710339 3.0932710339 
3.0932710339 3.0932710339 3.0932710339 3.0932710339 3.0932710339 3.0932710339 3.0932710339 3.0932710339 3.0932710339 
3.0932710339 3.0932710339 3.0932710339 3.0932710339 3.0932710339 3.0932710339 3.0932710339 3.0932710339 3.0932710339 
3.0932710339 3.0932710339 3.0932710339 3.0932710339 3.0932710339 3.0932710339 3.0932710339 3.0932710339 3.0932710339 
3.0932710339 3.0932710339 3.0932710339 3.0932710339 3.0932710339 3.0932710339 3.0932710339 3.0932710339 3.0932710339 
3.0932710339 3.0932710339 3.0932710339 3.0932710339 3.0932710339 3.0932710339 3.0932710339 3.1078652246 3.1078652246 
3.1078652246 3.1078652246 3.0932710339 3.0932710339 3.1078652246 3.1078652246 3.1078652246 3.1078652246 3.0932710339 
3.0932710339 3.1078652246 3.1078652246 3.1078652246 3.1078652246 3.1078652246 3.1078652246 3.0932710339 3.0932710339 
3.1078652246 3.1078652246 3.1078652246 3.1078652246 3.0932710339 3.0932710339 3.1078652246 3.1078652246 3.0932710339 
3.0932710339 3.0932710339 3.1078652246 3.1078652246 3.1078652246 3.0932710339 3.0932710339 3.0932710339 3.1078652246 
3.1078652246 3.1078652246 3.0932710339 3.0932710339 3.1078652246 3.1078652246 3.1078652246 3.0932710339 3.0932710339 
3.1078652246 3.1078652246 3.1078652246 3.0932710339 3.0932710339 3.1078652246 3.1078652246 3.0932710339 3.0932710339 
3.1078652246 3.1078652246 3.0932710339 3.0932710339 3.1078652246 3.1078652246 3.0932710339 3.0932710339 3.1078652246 
3.1078652246 3.1078652246 3.1078652246 3.0932710339 3.0932710339 3.1078652246 3.1078652246 3.0932710339 3.0932710339 
3.1078652246 3.1078652246 3.1078652246 3.0932710339 3.0932710339 3.0932710339 3.1078652246 3.1078652246 3.1078652246 
3.0932710339 3.0932710339 3.1078652246 3.1078652246 3.1078652246 3.0932710339 3.0932710339 3.1078652246 3.1078652246 
3.0932710339 3.0932710339 3.1078652246 3.1078652246 3.1078652246 3.0932710339 3.0932710339 3.1078652246 3.1078652246 
3.0932710339 3.0932710339 3.1078652246 3.1078652246 3.0932710339 3.0932710339 3.1078652246 3.1078652246 3.1078652246 
3.0932710339 3.0932710339 3.1078652246 3.1078652246 3.0932710339 3.0932710339 3.1078652246 3.1078652246 3.0932710339 
3.0932710339 3.1078652246 3.1078652246 3.0932710339 3.0932710339 3.0932710339 3.1078652246 3.1078652246 3.0932710339 
3.0932710339 3.1078652246 3.1078652246 3.1078652246 3.1078652246 3.0932710339 3.0932710339 3.1078652246 3.1224594153 
3.1224594153 3.1224594153 3.1078652246 3.0932710339 3.0932710339 3.1078652246 3.1224594153 3.1224594153 3.1224594153 
3.1224594153 3.1078652246 3.0932710339 3.0932710339 3.1078652246 3.1224594153 3.1224594153 3.1224594153 3.1224594153 
3.1224594153 3.1078652246 3.0932710339 3.0932710339 3.1078652246 3.1224594153 3.1224594153 3.1224594153 3.1078652246 
3.1078652246 3.0932710339 3.0932710339 3.1078652246 3.1224594153 3.1224594153 3.1224594153 3.1224594153 3.1078652246 
3.0932710339 3.0932710339 3.1078652246 3.1078652246 3.1224594153 3.1224594153 3.1078652246 3.0932710339 3.0932710339 
3.1078652246 3.1224594153 3.1224594153 3.1224594153 3.1224594153 3.1078652246 3.0932710339 3.0932710339 3.1078652246 
3.1224594153 3.1224594153 3.1078652246 3.0932710339 3.0786768432 3.0786768432 3.0786768432 3.0786768432 3.0932710339 
3.1078652246 3.1224594153 3.1224594153 3.1224594153 3.1078652246 3.1078652246 3.0932710339 3.0932710339 3.0786768432 
3.0786768432 3.0786768432 3.0932710339 3.1078652246 3.1224594153 3.1224594153 3.1078652246 3.0932710339 3.0786768432 
3.0786768432 3.0786768432 3.0786768432 3.0786768432 3.0786768432 3.0786768432 3.0786768432 3.0786768432 3.0786768432 
3.0786768432 3.0786768432 3.0932710339 3.1078652246 3.1224594153 3.1224594153 3.1224594153 3.1078652246 3.0932710339 
3.0786768432 3.0786768432 3.0786768432 3.0786768432 3.0786768432 3.0786768432 3.0786768432 3.0932710339 3.1078652246 
3.1224594153 3.1224594153 3.1224594153 3.1078652246 3.0932710339 3.0786768432 3.0786768432 3.0786768432 3.0786768432 
3.0786768432 3.0786768432 3.0932710339 3.0932710339 3.1078652246 3.1224594153 3.1224594153 3.1224594153 3.1078652246 
3.0932710339 3.0786768432 3.0786768432 3.0786768432 3.0786768432 3.0786768432 3.0786768432 3.0786768432 3.0932710339 
3.1078652246 3.1078652246 3.1224594153 3.1224594153 3.1078652246 3.0932710339 3.0786768432 3.0786768432 3.0786768432 
3.0786768432 3.0786768432 3.0932710339 3.1078652246 3.1224594153 3.1224594153 3.1224594153 3.1078652246 3.1078652246 
3.0932710339 3.0786768432 3.0786768432 3.0786768432 3.0786768432 3.0786768432 3.0786768432 3.0932710339 3.1078652246 
3.1224594153 3.137053606 3.137053606 3.137053606 3.1224594153 3.1078652246 3.0932710339 3.0786768432 3.0786768432 
3.0786768432 3.0786768432 3.0786768432 3.0932710339 3.1078652246 3.1224594153 3.137053606 3.137053606 3.137053606 
3.137053606 3.1224594153 3.1078652246 3.0932710339 3.0786768432 3.0786768432 3.0786768432 3.0786768432 3.0786768432 
3.0932710339 3.1078652246 3.1224594153 3.1224594153 3.137053606 3.137053606 3.137053606 3.137053606 3.1224594153 
3.1224594153 3.1078652246 3.0932710339 3.0786768432 3.0786768432 3.0786768432 3.0786768432 3.0786768432 3.0786768432 
3.0786768432 3.0932710339 3.1078652246 3.1224594153 3.137053606 3.137053606 3.137053606 3.137053606 3.1224594153 
3.1078652246 3.0932710339 3.0786768432 3.0786768432 3.0786768432 3.0786768432 3.0786768432 3.0786768432 3.0932710339 
3.1078652246 3.1224594153 3.137053606 3.137053606 3.1224594153 3.1078652246 3.1078652246 3.0932710339 3.0786768432 
3.0786768432 3.0786768432 3.0786768432 3.0786768432 3.0932710339 3.1078652246 3.1224594153 3.137053606 3.137053606 
3.137053606 3.1224594153 3.1078652246 3.0932710339 3.0786768432 3.0786768432 3.0786768432 3.0786768432 3.0786768432 
3.0932710339 3.1078652246 3.1224594153 3.137053606 3.137053606 3.137053606 3.1224594153 3.1224594153 3.1078652246 
3.0932710339 3.0786768432 3.0786768432 3.0786768432 3.0786768432 3.0786768432 3.0786768432 3.0932710339 3.1078652246 
3.1224594153 3.1224594153 3.137053606 3.137053606 3.1224594153 3.1078652246 3.0932710339 3.0786768432 3.0786768432 
3.0786768432 3.0786768432 3.0786768432 3.0932710339 3.1078652246 3.1224594153 3.137053606 3.137053606 3.137053606 
3.1224594153 3.1078652246 3.0932710339 3.0786768432 3.0786768432 3.0786768432 3.0786768432 3.0786768432 3.0932710339 
3.1078652246 3.1224594153 3.137053606 3.137053606 3.137053606 3.1224594153 3.1078652246 3.0932710339 3.0786768432 
3.0786768432 3.0786768432 3.0786768432 3.0786768432 3.0786768432 3.0932710339 3.1078652246 3.1224594153 3.137053606 
3.137053606 3.1224594153 3.1078652246 3.0932710339 3.0786768432 3.0786768432 3.0786768432 3.0786768432 3.0932710339 
3.1078652246 3.1078652246 3.1224594153 3.137053606 3.137053606 3.137053606 3.1224594153 3.1078652246 3.0932710339 
3.0786768432 3.0786768432 3.0786768432 3.0786768432 3.0932710339 3.1078652246 3.1224594153 3.1224594153 3.137053606 
3.1516477967 3.1516477967 3.1516477967 3.1516477967 3.1516477967 3.137053606 3.137053606 3.1224594153 3.1224594153 
3.1078652246 3.0932710339 3.0786768432 3.0786768432 3.0786768432 3.0786768432 3.0786768432 3.0932710339 3.1078652246 
3.1224594153 3.137053606 3.1516477967 3.1516477967 3.1516477967 3.1516477967 3.137053606 3.1224594153 3.1078652246 
3.0932710339 3.0786768432 3.0786768432 3.0786768432 3.0786768432 3.0932710339 3.0932710339 3.1078652246 3.1224594153 
3.137053606 3.137053606 3.1516477967 3.1516477967 3.1516477967 3.137053606 3.1224594153 3.1078652246 3.1078652246 
3.0932710339 3.0786768432 3.0786768432 3.0786768432 3.0786768432 3.0786768432 3.0932710339 3.1078652246 3.1224594153 
3.137053606 3.1516477967 3.1516477967 3.1516477967 3.137053606 3.1224594153 3.1078652246 3.0932710339 3.0786768432 
3.0786768432 3.0786768432 3.0786768432 3.0640826525 3.0640826525 3.0640826525 3.0640826525 3.0640826525 3.0640826525 
3.0640826525 3.0640826525 3.0786768432 3.0932710339 3.1078652246 3.1224594153 3.137053606 3.1516477967 3.1516477967 
3.1516477967 3.137053606 3.1224594153 3.1078652246 3.0932710339 3.0786768432 3.0786768432 3.0786768432 3.0786768432 
3.0640826525 3.0640826525 3.0640826525 3.0786768432 3.0932710339 3.1078652246 3.1224594153 3.1224594153 3.137053606 
3.137053606 3.1516477967 3.1516477967 3.1516477967 3.137053606 3.1224594153 3.1078652246 3.0932710339 3.0786768432 
3.0786768432 3.0786768432 3.0640826525 3.0640826525 3.0640826525 3.0786768432 3.0932710339 3.1078652246 3.1224594153 
3.137053606 3.1516477967 3.1516477967 3.1516477967 3.137053606 3.137053606 3.1224594153 3.1078652246 3.1078652246 
3.0932710339 3.0786768432 3.0786768432 3.0786768432 3.0786768432 3.0640826525 3.0640826525 3.0640826525 3.0786768432 
3.0932710339 3.0932710339 3.1078652246 3.1224594153 3.137053606 3.1516477967 3.1516477967 3.137053606 3.1224594153 
3.1078652246 3.0932710339 3.0786768432 3.0786768432 3.0786768432 3.0786768432 3.0786768432 3.0640826525 3.0640826525 
3.0640826525 3.0786768432 3.0932710339 3.1078652246 3.1224594153 3.137053606 3.137053606 3.1516477967 3.1516477967 
3.1516477967 3.137053606 3.1224594153 3.1078652246 3.0932710339 3.0786768432 3.0786768432 3.0786768432 3.0640826525 
3.0640826525 3.0786768432 3.0932710339 3.1078652246 3.1224594153 3.137053606 3.1516477967 3.1516477967 3.137053606 
3.1224594153 3.1078652246 3.0932710339 3.0786768432 3.0786768432 3.0786768432 3.0786768432 3.0786768432 3.0786768432 
3.0786768432 3.0786768432 3.0786768432 3.0786768432 3.0640826525 3.0640826525 3.0786768432 3.0786768432 3.0932710339 
3.0932710339 3.1078652246 3.1224594153 3.137053606 3.1516477967 3.1516477967 3.1662419875 3.1662419875 3.1662419875 
3.1662419875 3.1662419875 3.1662419875 3.1516477967 3.137053606 3.1224594153 3.1078652246 3.0932710339 3.0786768432 
3.0786768432 3.0786768432 3.0786768432 3.0640826525 3.0640826525 3.0494884618 3.0494884618 3.0494884618 3.0494884618 
3.0494884618 3.0494884618 3.0640826525 3.0640826525 3.0786768432 3.0932710339 3.1078652246 3.1078652246 3.1224594153 
3.1224594153 3.137053606 3.1516477967 3.1662419875 3.1662419875 3.1662419875 3.1516477967 3.137053606 3.1224594153 
3.1078652246 3.0932710339 3.0932710339 3.0786768432 3.0786768432 3.0786768432 3.0640826525 3.0494884618 3.0494884618 
3.0494884618 3.0640826525 3.0786768432 3.0932710339 3.0932710339 3.1078652246 3.1224594153 3.137053606 3.137053606 
3.1516477967 3.1662419875 3.1662419875 3.1516477967 3.137053606 3.137053606 3.1224594153 3.1078652246 3.0932710339 
3.0786768432 3.0640826525 3.0640826525 3.0640826525 3.0640826525 3.0640826525 3.0786768432 3.0786768432 3.0786768432 
3.0640826525 3.0494884618 3.0494884618 3.0494884618 3.0640826525 3.0786768432 3.0932710339 3.1078652246 3.1224594153 
3.137053606 3.1516477967 3.1662419875 3.1662419875 3.1662419875 3.1662419875 3.1516477967 3.137053606 3.1224594153 
3.1078652246 3.0932710339 3.0786768432 3.0786768432 3.0640826525 3.0640826525 3.0640826525 3.0786768432 3.0786768432 
3.0786768432 3.0640826525 3.0494884618 3.0494884618 3.0640826525 3.0786768432 3.0932710339 3.1078652246 3.1224594153 
3.137053606 3.1516477967 3.1516477967 3.1662419875 3.1662419875 3.1516477967 3.137053606 3.1224594153 3.1224594153 
3.1078652246 3.0932710339 3.0786768432 3.0640826525 3.0640826525 3.0640826525 3.0786768432 3.0786768432 3.0640826525 
3.0494884618 3.0348942711 3.0348942711 3.0348942711 3.0348942711 3.0348942711 3.0494884618 3.0494884618 3.0640826525 
3.0786768432 3.0932710339 3.1078652246 3.1224594153 3.137053606 3.1516477967 2.9619233175 2.9619233175 2.9765175082 
2.9765175082 2.991111699 2.991111699 3.0057058897 3.0057058897 3.0203000804 3.0203000804 3.0348942711 3.0348942711 
3.0494884618 3.0494884618 3.0640826525 3.0640826525 3.0786768432 3.0786768432 3.0932710339 3.0932710339 3.1078652246 
3.1078652246 3.1224594153 3.1224594153 3.137053606 3.137053606 3.1516477967 3.1516477967 2.9619233175 2.9765175082 
2.991111699 3.0057058897 3.0203000804 3.0348942711 3.0494884618 3.0640826525 3.0786768432 3.0932710339 3.1078652246 
3.1224594153 3.137053606 3.1516477967 2.9619233175 2.9765175082 2.991111699 3.0057058897 3.0203000804 3.0348942711 
3.0494884618 3.0640826525 3.0786768432 3.0932710339 3.1078652246 3.1224594153 3.137053606 3.1516477967 3.1662419875 
2.9619233175 2.9765175082 2.991111699 3.0057058897 3.0203000804 3.0348942711 3.0494884618 3.0640826525 3.0786768432 
3.0932710339 3.1078652246 3.1224594153 3.137053606 3.1516477967 3.1662419875 2.9619233175 2.9765175082 2.991111699 
3.0057058897 3.0203000804 3.0348942711 3.0494884618 3.0640826525 3.0786768432 3.0932710339 3.1078652246 3.1224594153 
3.137053606 3.1516477967 3.1662419875 2.9619233175 2.9765175082 2.991111699 3.0057058897 3.0203000804 3.0348942711 
3.0494884618 3.0640826525 3.0786768432 3.0932710339 3.1078652246 3.1224594153 3.137053606 3.1516477967 3.1662419875 
2.9619233175 2.9765175082 2.991111699 3.0057058897 3.0203000804 3.0348942711 3.0494884618 3.0640826525 3.0786768432 
3.0932710339 3.1078652246 3.1224594153 3.137053606 3.1516477967 3.1662419875 2.9619233175 2.9765175082 2.991111699 
3.0057058897 3.0203000804 3.0348942711 3.0494884618 3.0640826525 3.0786768432 3.0932710339 3.1078652246 3.1224594153 
3.137053606 3.1516477967 3.1662419875 2.9619233175 2.9765175082 2.991111699 3.0057058897 3.0203000804 3.0348942711 
3.0494884618 3.0640826525 3.0786768432 3.0932710339 3.1078652246 3.1224594153 3.137053606 3.1516477967 3.1662419875 
2.9619233175 2.9765175082 2.991111699 3.0057058897 3.0203000804 3.0348942711 3.0494884618 3.0640826525 3.0786768432 
3.0932710339 3.1078652246 3.1224594153 3.137053606 3.1516477967 2.9619233175 2.9765175082 2.991111699 3.0057058897 
3.0203000804 3.0348942711 3.0494884618 3.0640826525 3.0786768432 3.0932710339 3.1078652246 3.1224594153 3.137053606 
3.1516477967 2.9619233175 2.9765175082 2.991111699 3.0057058897 3.0203000804 3.0348942711 3.0494884618 3.0640826525 
3.0786768432 3.0932710339 3.1078652246 3.1224594153 3.137053606 3.1516477967 2.9619233175 2.9765175082 2.991111699 
3.0057058897 3.0203000804 3.0348942711 3.0494884618 3.0640826525 3.0786768432 3.0932710339 3.1078652246 3.1224594153 
3.137053606 2.9619233175 2.9765175082 2.991111699 3.0057058897 3.0203000804 3.0348942711 3.0494884618 3.0640826525 
3.0786768432 3.0932710339 3.1078652246 3.1224594153 3.137053606 2.9619233175 2.9765175082 2.991111699 3.0057058897 
3.0203000804 3.0348942711 3.0494884618 3.0640826525 3.0786768432 3.0932710339 3.1078652246 3.1224594153 3.137053606 
2.9619233175 2.9765175082 2.991111699 3.0057058897 3.0203000804 3.0348942711 3.0494884618 3.0640826525 3.0786768432 
3.0932710339 3.1078652246 3.1224594153 2.9619233175 2.9765175082 2.991111699 3.0057058897 3.0203000804 3.0348942711 
3.0494884618 3.0640826525 3.0786768432 3.0932710339 3.1078652246 3.1224594153 3.1224594153 3.1078652246 3.0932710339 
3.0786768432 3.0640826525 3.0640826525 3.0640826525 3.0786768432 3.0786768432 3.0786768432 3.0640826525 3.0494884618 
3.0348942711 3.0348942711 3.0494884618 3.0640826525 3.0786768432 3.0932710339 3.1078652246 3.1224594153 3.1224594153 
2.9619233175 2.9619233175 2.9765175082 2.9765175082 2.991111699 2.991111699 3.0057058897 3.0057058897 3.0203000804 
3.0203000804 3.0348942711 3.0348942711 3.0494884618 3.0494884618 3.0640826525 3.0640826525 3.0786768432 3.0786768432 
3.0932710339 3.0932710339 3.1078652246 3.1078652246 3.1224594153 3.1224594153 2.9619233175 2.9765175082 2.991111699 