# vtk DataFile Version 4.2
vtk output
ASCII
DATASET POLYDATA
POINTS 6949 float
1510.6 -3553.17 0 1516.83 -3561.95 0 1533.75 -3553.17 0 
1500.23 -3536.17 0 1553.83 -3544.62 0 1570.47 -3536.17 0 
1489.86 -3519.17 0 1590.84 -3525.82 0 1603.93 -3519.16 0 
1479.49 -3502.17 0 1479.83 -3502.73 0 1627.84 -3507.01 0 
1637.38 -3502.16 0 1469.12 -3485.17 0 1664.84 -3488.21 0 
1670.84 -3485.16 0 1458.75 -3468.16 0 1701.84 -3469.41 0 
1704.3 -3468.16 0 1448.37 -3451.16 0 1737.75 -3451.16 0 
1438 -3434.16 0 1442.84 -3442.09 0 1738.84 -3450.6 0 
1771.21 -3434.15 0 1427.63 -3417.16 0 1775.85 -3431.8 0 
1804.66 -3417.15 0 1417.26 -3400.16 0 1812.85 -3412.99 0 
1838.12 -3400.15 0 1406.89 -3383.16 0 1849.85 -3394.19 0 
1871.58 -3383.15 0 1396.52 -3366.16 0 1405.84 -3381.44 0 
1886.85 -3375.39 0 1905.03 -3366.15 0 1386.14 -3349.16 0 
1923.85 -3356.58 0 1938.49 -3349.14 0 1375.77 -3332.16 0 
1960.86 -3337.78 0 1971.94 -3332.14 0 1365.4 -3315.16 0 
1368.84 -3320.8 0 1997.86 -3318.97 0 2005.4 -3315.14 0 
1355.03 -3298.16 0 2034.86 -3300.17 0 2038.86 -3298.14 0 
1344.66 -3281.16 0 2071.86 -3281.37 0 2072.31 -3281.14 0 
1334.29 -3264.16 0 2105.77 -3264.14 0 1323.91 -3247.16 0 
1331.84 -3260.15 0 2108.86 -3262.56 0 2139.22 -3247.13 0 
1313.54 -3230.15 0 2145.87 -3243.76 0 2172.68 -3230.13 0 
1303.17 -3213.15 0 2182.87 -3224.95 0 2206.14 -3213.13 0 
1292.8 -3196.15 0 1294.85 -3199.51 0 2219.87 -3206.15 0 
2239.59 -3196.13 0 1282.43 -3179.15 0 2256.87 -3187.35 0 
2273.05 -3179.13 0 1272.06 -3162.15 0 2293.88 -3168.54 0 
2309.25 -3162.12 0 1261.68 -3145.15 0 2330.88 -3157.24 0 
2363.21 -3145.12 0 1251.31 -3128.15 0 1257.85 -3138.86 0 
2367.88 -3140.21 0 2370.74 -3128.12 0 1240.94 -3111.15 0 
2374.77 -3111.12 0 1230.57 -3094.15 0 2378.79 -3094.12 0 
1220.2 -3077.15 0 1220.85 -3078.22 0 2382.82 -3077.12 0 
1209.83 -3060.15 0 2386.84 -3060.12 0 1199.46 -3043.15 0 
2390.87 -3043.11 0 1189.08 -3026.15 0 2394.9 -3026.11 0 
1178.71 -3009.15 0 1183.85 -3017.57 0 2398.92 -3009.11 0 
1168.34 -2992.14 0 2402.95 -2992.11 0 1157.97 -2975.14 0 
2404.89 -2983.9 0 2406.97 -2975.11 0 1147.6 -2958.14 0 
2411 -2958.11 0 1137.23 -2941.14 0 1146.86 -2956.93 0 
2415.02 -2941.11 0 1126.85 -2924.14 0 2419.05 -2924.11 0 
1090.17 -2907.14 0 1109.86 -2916.15 0 2423.07 -2907.11 0 
1043.94 -2890.14 0 1072.86 -2900.78 0 2427.1 -2890.1 0 
997.955 -2873.14 0 998.858 -2873.57 0 1035.86 -2887.17 0 
2431.13 -2873.1 0 966.653 -2856.14 0 2435.15 -2856.1 0 
954.109 -2839.14 0 961.858 -2853.09 0 2439.18 -2839.1 0 
944.912 -2822.14 0 2441.9 -2827.6 0 2443.2 -2822.1 0 
935.979 -2805.14 0 2447.23 -2805.1 0 927.298 -2788.14 0 
2451.25 -2788.1 0 920.143 -2771.14 0 924.861 -2783.28 0 
2455.28 -2771.1 0 913.534 -2754.14 0 2459.3 -2754.1 0 
906.926 -2737.14 0 2463.33 -2737.09 0 900.318 -2720.14 0 
2467.36 -2720.09 0 893.709 -2703.13 0 2471.38 -2703.09 0 
887.101 -2686.13 0 887.866 -2688.1 0 2475.41 -2686.09 0 
880.493 -2669.13 0 2478.91 -2671.3 0 2479.43 -2669.09 0 
873.885 -2652.13 0 2483.46 -2652.09 0 867.276 -2635.13 0 
2487.48 -2635.09 0 860.668 -2618.13 0 2491.51 -2618.09 0 
854.06 -2601.13 0 2495.53 -2601.09 0 847.451 -2584.13 0 
850.87 -2592.92 0 2499.56 -2584.08 0 840.843 -2567.13 0 
2503.59 -2567.08 0 834.235 -2550.13 0 2507.61 -2550.08 0 
827.627 -2533.13 0 2511.64 -2533.08 0 821.018 -2516.13 0 
2515.66 -2516.08 0 814.41 -2499.13 0 2515.92 -2514.99 0 
2519.69 -2499.08 0 807.802 -2482.12 0 813.875 -2497.75 0 
2523.71 -2482.08 0 801.194 -2465.12 0 2527.74 -2465.08 0 
794.585 -2448.12 0 2531.76 -2448.08 0 787.977 -2431.12 0 
2535.79 -2431.07 0 781.369 -2414.12 0 2539.82 -2414.07 0 
774.76 -2397.12 0 776.88 -2402.57 0 2543.84 -2397.07 0 
768.152 -2380.12 0 2547.87 -2380.07 0 761.544 -2363.12 0 
2551.89 -2363.07 0 754.936 -2346.12 0 2552.93 -2358.69 0 
2555.92 -2346.07 0 748.327 -2329.12 0 2559.94 -2329.07 0 
741.719 -2312.12 0 2563.97 -2312.07 0 735.111 -2295.12 0 
739.884 -2307.4 0 2567.99 -2295.07 0 728.503 -2278.11 0 
2572.02 -2278.06 0 721.894 -2261.11 0 2576.05 -2261.06 0 
715.286 -2244.11 0 2580.07 -2244.06 0 708.678 -2227.11 0 
2584.1 -2227.06 0 702.069 -2210.11 0 702.889 -2212.22 0 
2588.12 -2210.06 0 695.56 -2193.11 0 2589.94 -2204.18 0 
2592.77 -2193.06 0 690.51 -2176.11 0 2599.56 -2176.06 0 
688.179 -2159.11 0 2600.72 -2159.06 0 685.847 -2142.11 0 
2599.47 -2142.06 0 683.516 -2125.11 0 2598.26 -2125.05 0 
681.185 -2108.11 0 2597.08 -2108.05 0 678.854 -2091.1 0 
2595.93 -2091.05 0 676.522 -2074.1 0 2594.82 -2074.05 0 
674.191 -2057.1 0 2593.73 -2057.05 0 671.86 -2040.1 0 
2592.67 -2040.05 0 669.529 -2023.1 0 2591.63 -2023.05 0 
667.198 -2006.1 0 2590.62 -2006.05 0 664.866 -1989.1 0 
665.901 -1996.64 0 2589.95 -1994.56 0 2589.64 -1989.05 0 
662.535 -1972.1 0 2588.66 -1972.05 0 660.204 -1955.1 0 
2587.69 -1955.05 0 657.873 -1938.1 0 2586.72 -1938.04 0 
655.541 -1921.1 0 2585.75 -1921.04 0 653.21 -1904.09 0 
2584.77 -1904.04 0 650.879 -1887.09 0 2583.8 -1887.04 0 
648.896 -1870.09 0 2582.83 -1870.04 0 647.114 -1853.09 0 
2581.86 -1853.04 0 645.423 -1836.09 0 2580.88 -1836.04 0 
643.817 -1819.09 0 2579.91 -1819.04 0 642.287 -1802.09 0 
2578.94 -1802.04 0 640.83 -1785.09 0 2577.97 -1785.04 0 
639.435 -1768.09 0 2576.99 -1768.03 0 638.321 -1751.09 0 
2576.02 -1751.03 0 637.207 -1734.08 0 2575.05 -1734.03 0 
636.093 -1717.08 0 2574.08 -1717.03 0 634.944 -1700.08 0 
2573.1 -1700.03 0 633.498 -1683.08 0 2572.13 -1683.03 0 
632.049 -1666.08 0 2571.16 -1666.03 0 630.6 -1649.08 0 
2570.19 -1649.03 0 629.138 -1632.08 0 2569.21 -1632.03 0 
627.701 -1615.08 0 628.921 -1629.39 0 1312.14 -1615.06 0 
1331.94 -1615.59 0 1368.94 -1616.27 0 1405.94 -1616.94 0 
1442.94 -1617.62 0 1479.94 -1618.29 0 1516.95 -1618.97 0 
1553.95 -1619.64 0 1590.95 -1620.32 0 1627.95 -1620.99 0 
1637.97 -1615.05 0 2568.24 -1615.03 0 626.252 -1598.08 0 
1274.73 -1598.06 0 1294.94 -1614.51 0 1657.3 -1598.05 0 
2567.27 -1598.02 0 624.803 -1581.08 0 1252.76 -1581.06 0 
1257.94 -1586.57 0 1664.95 -1590.54 0 1676.41 -1581.05 0 
2566.3 -1581.02 0 -481.105 -1571.1 0 -495.591 -1564.11 0 
-444.104 -1568.63 0 -429.252 -1564.1 0 623.354 -1564.08 0 
1236.81 -1564.06 0 1697.02 -1564.05 0 2565.32 -1564.02 0 
-518.105 -1553.24 0 -530.821 -1547.11 0 -407.103 -1557.35 0 
-373.521 -1547.1 0 621.904 -1547.07 0 1220.85 -1547.06 0 
1220.94 -1547.15 0 1701.95 -1559.89 0 1717.46 -1547.04 0 
2565.63 -1547.02 0 -555.105 -1535.39 0 -566.051 -1530.11 0 
-370.101 -1546.06 0 -333.099 -1534.77 0 -317.79 -1530.1 0 
617.357 -1530.07 0 1204.9 -1530.06 0 1737.98 -1530.04 0 
2566.76 -1530.02 0 -592.105 -1517.53 0 -601.281 -1513.11 0 
-296.098 -1523.48 0 -262.059 -1513.1 0 613.424 -1513.07 0 
1188.94 -1513.06 0 1738.96 -1529.23 0 1758.5 -1513.04 0 
2567.88 -1513.02 0 -629.105 -1499.68 0 -636.512 -1496.11 0 
-259.096 -1512.19 0 -222.094 -1500.9 0 -206.328 -1496.09 0 
610.268 -1496.07 0 1172.98 -1496.06 0 1183.94 -1507.73 0 
1775.96 -1498.58 0 1779.03 -1496.04 0 2569 -1496.02 0 
-666.105 -1481.83 0 -671.742 -1479.11 0 -185.093 -1489.61 0 
-150.597 -1479.09 0 607.678 -1479.07 0 1157.03 -1479.06 0 
1799.55 -1479.04 0 2570.12 -1479.02 0 -703.105 -1463.97 0 
-706.104 -1462.11 0 -148.091 -1478.33 0 -111.089 -1467.04 0 
-74.0881 -1464.18 0 -71.2266 -1462.09 0 605.515 -1462.07 0 
1141.07 -1462.06 0 1146.94 -1468.31 0 1812.96 -1467.93 0 
1817.03 -1462.04 0 2571.25 -1462.02 0 -726.632 -1445.1 0 
-45.4518 -1445.09 0 603.007 -1445.07 0 1125.11 -1445.05 0 
1826.81 -1445.04 0 2572.37 -1445.02 0 -739.583 -1428.1 0 
-37.0856 -1438.23 0 -29.8695 -1428.08 0 599.295 -1428.07 0 
1109.16 -1428.05 0 1109.95 -1428.89 0 1833.23 -1428.03 0 
2573.49 -1428.01 0 -740.104 -1427.36 0 -751.554 -1411.1 0 
-17.7811 -1411.08 0 595.583 -1411.07 0 1093.2 -1411.05 0 
1839.64 -1411.03 0 2572.74 -1411.01 0 -763.524 -1394.1 0 
-5.9344 -1394.08 0 591.857 -1394.07 0 591.934 -1394.36 0 
1074.55 -1394.05 0 1846.05 -1394.03 0 2571.19 -1394.01 0 
-775.494 -1377.1 0 -0.0815358 -1386.19 0 6.39581 -1377.08 0 
587.767 -1377.07 0 1051.49 -1377.05 0 1072.95 -1392.71 0 
1849.97 -1383.66 0 1852.47 -1377.03 0 2569.98 -1377.01 0 
-777.102 -1374.82 0 -787.464 -1360.1 0 18.4843 -1360.08 0 
584.327 -1360.06 0 1028.2 -1360.05 0 1035.95 -1365.71 0 
1858.88 -1360.03 0 2566.86 -1360.01 0 -799.435 -1343.1 0 
30.5728 -1343.08 0 580.734 -1343.06 0 1004.9 -1343.05 0 
1865.3 -1343.03 0 2563.59 -1343.01 0 -811.405 -1326.1 0 
36.9225 -1334.15 0 42.6612 -1326.08 0 577.022 -1326.06 0 
988.666 -1326.05 0 998.948 -1338.7 0 1871.71 -1326.03 0 
2560.33 -1326.01 0 -814.1 -1322.27 0 -823.375 -1309.1 0 
54.7497 -1309.08 0 571.832 -1309.06 0 974.793 -1309.05 0 
1878.12 -1309.03 0 2557.07 -1309.01 0 -835.346 -1292.1 0 
66.8382 -1292.07 0 562.775 -1292.06 0 961.064 -1292.05 0 
961.95 -1293.38 0 1884.54 -1292.03 0 2553.81 -1292.01 0 
-847.316 -1275.1 0 73.9266 -1282.1 0 78.9266 -1275.07 0 
557.302 -1275.06 0 949.777 -1275.05 0 1886.98 -1285.56 0 
1890.95 -1275.02 0 2552.99 -1287.75 0 2550.55 -1275.01 0 
-851.098 -1269.73 0 -859.286 -1258.1 0 91.015 -1258.07 0 
553.125 -1258.06 0 554.94 -1266.09 0 938.49 -1258.05 0 
1897.36 -1258.02 0 2547.29 -1258.01 0 -871.256 -1241.1 0 
103.104 -1241.07 0 549.286 -1241.06 0 927.203 -1241.05 0 
1906.74 -1241.02 0 2544.02 -1241 0 -883.227 -1224.1 0 
110.931 -1230.06 0 115.192 -1224.07 0 545.455 -1224.06 0 
915.916 -1224.05 0 924.952 -1237.66 0 1916.88 -1224.02 0 
2540.76 -1224 0 -888.096 -1217.18 0 -895.197 -1207.1 0 
125.311 -1207.07 0 541.633 -1207.06 0 904.629 -1207.05 0 
1923.98 -1212.12 0 1926.81 -1207.02 0 2537.5 -1207 0 
-907.167 -1190.09 0 131.591 -1190.07 0 537.82 -1190.06 0 
894.512 -1190.05 0 1935.41 -1190.02 0 2534.24 -1190 0 
-919.138 -1173.09 0 136.009 -1173.07 0 534.015 -1173.05 0 
885.536 -1173.05 0 887.955 -1177.92 0 1942.93 -1173.02 0 
2530.98 -1173 0 -925.094 -1164.63 0 -931.108 -1156.09 0 
138.719 -1156.06 0 530.218 -1156.05 0 877.093 -1156.04 0 
1949.37 -1156.02 0 2527.72 -1156 0 -943.761 -1139.09 0 
140.571 -1139.06 0 526.43 -1139.05 0 868.649 -1139.04 0 
1955.03 -1139.01 0 2525.69 -1139 0 -961.166 -1122.09 0 
142.423 -1122.06 0 522.65 -1122.05 0 860.206 -1122.04 0 
[...]
POINT_DATA 6949
SCALARS Pressure double
LOOKUP_TABLE default
3.0932710339 3.0932710339 3.0932710339 3.0932710339 3.0932710339 3.0932710339 3.0932710339 3.0932710339 3.0932710339 
3.0932710339 3.0932710339 3.0932710339 3.0932710339 3.0932710339 3.0932710339 3.0932710339 3.0932710339 3.0932710339 
3.0932710339 3.0932710339 3.0932710339 3.0932710339 3.0932710339 3.0932710339 3.0932710339 3.0932710339 3.0932710339 
3.0932710339 3.0932710339 3.0932710339 3.0932710339 3.0932710339 3.0932710339 3.0932710339 3.0932710339 3.0932710339 
3.0932710339 3.0932710339 3.0932710339 3.0932710339 3.0932710339 3.0932710339 3.0932710339 3.0932710339 3.0932710339 
3.0932710339 3.0932710339 3.0932710339 3.0932710339 3.0932710339 3.0932710339 3.0932710339 3.0932710339 3.0932710339 
3.0932710339 3.0932710339 3.0932710339 3.0932710339 3.0932710339 3.0932710339 3.0932710339 3.0932710339 3.0932710339 
3.0932710339 3.0932710339 3.0932710339 3.0932710339 3.0932710339 3.0932710339 3.0932710339 3.0932710339 3.0932710339 
3.0932710339 3.0932710339 3.0932710339 3.0932710339 3.0932710339 3.0932710339 3.0932710339 3.0932710339 3.0932710339 
3.0932710339 3.0932710339 3.0932710339 3.0932710339 3.0932710339 3.0932710339 3.0932710339 3.0932710339 3.0932710339 
3.0932710339 3.0932710339 3.0932710339 3.0932710339 3.0932710339 3.0932710339 3.0932710339 3.0932710339 3.0932710339 
3.0932710339 3.0932710339 3.0932710339 3.0932710339 3.0932710339 3.0932710339 3.0932710339 3.0932710339 3.0932710339 
3.0932710339 3.0932710339 3.0932710339 3.0932710339 3.0932710339 3.0932710339 3.0932710339 3.0932710339 3.0932710339 
3.0932710339 3.0932710339 3.0932710339 3.0932710339 3.0932710339 3.0932710339 3.0932710339 3.0932710339 3.0932710339 
3.0932710339 3.0932710339 3.0932710339 3.0932710339 3.0932710339 3.0932710339 3.0932710339 3.0932710339 3.0932710339 
3.0932710339 3.0932710339 3.0932710339 3.0932710339 3.0932710339 3.0932710339 3.0932710339 3.0932710339 3.0932710339 
3.0932710339 3.0932710339 3.0932710339 3.0932710339 3.0932710339 3.0932710339 3.0932710339 3.0932710339 3.0932710339 
3.0932710339 3.0932710339 3.0932710339 3.0932710339 3.0932710339 3.0932710339 3.0932710339 3.0932710339 3.0932710339 
3.0932710339 3.0932710339 3.0932710339 3.0932710339 3.0932710339 3.0932710339 3.0932710339 3.0932710339 3.0932710339 
3.0932710339 3.0932710339 3.0932710339 3.0932710339 3.0932710339 3.0932710339 3.0932710339 3.0932710339 3.0932710339 
3.0932710339 3.0932710339 3.0932710339 3.0932710339 3.0932710339 3.0932710339 3.0932710339 3.0932710339 3.0932710339 
3.0932710339 3.0932710339 3.0932710339 3.0932710339 3.0932710339 3.0932710339 3.0932710339 3.0932710339 3.0932710339 
3.0932710339 3.0932710339 3.0932710339 3.0932710339 3.0932710339 3.0932710339 3.0932710339 3.0932710339 3.0932710339 
3.0932710339 3.0932710339 3.0932710339 3.0932710339 3.0932710339 3.0932710339 3.0932710339 3.0932710339 3.0932710339 
3.0932710339 3.0932710339 3.0932710339 3.0932710339 3.0932710339 3.0932710339 3.0932710339 3.0932710339 3.0932710339 
3.0932710339 3.0932710339 3.0932710339 3.0932710339 3.0932710339 3.0932710339 3.0932710339 3.0932710339 3.0932710339 
3.0932710339 3.0932710339 3.0932710339 3.0932710339 3.0932710339 3.0932710339 3.0932710339 3.0932710339 3.0932710339 
3.0932710339 3.0932710339 3.0932710339 3.0932710339 3.0932710339 3.0932710339 3.0932710339 3.0932710339 3.0932710339 
3.0932710339 3.0932710339 3.0932710339 3.0932710339 3.0932710339 3.0932710339 3.0932710339 3.0932710339 3.0932710339 
3.0932710339 3.0932710339 3.0932710339 3.0932710339 3.0932710339 3.0932710339 3.0932710339 3.0932710339 3.0932710339 
3.0932710339 3.0932710339 3.0932710339 3.0932710339 3.0932710339 3.0932710339 3.0932710339 3.0932710339 3.0932710339 
3.0932710339 3.0932710339 3.0932710339 3.0932710339 3.0932710339 3.1078652246 3.1078652246 3.1078652246 3.1078652246 
3.1078652246 3.1078652246 3.1078652246 3.1078652246 3.1078652246 3.1078652246 3.1078652246 3.0932710339 3.0932710339 
3.1078652246 3.1078652246 3.1078652246 3.0932710339 3.0932710339 3.1078652246 3.1078652246 3.1078652246 3.1078652246 
3.0932710339 3.0786768432 3.0786768432 3.0786768432 3.0786768432 3.0932710339 3.1078652246 3.1078652246 3.0932710339 
3.0786768432 3.0786768432 3.0786768432 3.0786768432 3.0932710339 3.1078652246 3.1078652246 3.1078652246 3.1078652246 
3.0932710339 3.0786768432 3.0786768432 3.0786768432 3.0786768432 3.0786768432 3.0932710339 3.1078652246 3.1078652246 
3.0932710339 3.0786768432 3.0786768432 3.0786768432 3.0786768432 3.0932710339 3.1078652246 3.1078652246 3.1078652246 
3.0932710339 3.0786768432 3.0786768432 3.0786768432 3.0786768432 3.0786768432 3.0932710339 3.1078652246 3.1078652246 
3.1078652246 3.1078652246 3.0932710339 3.0786768432 3.0786768432 3.0786768432 3.0786768432 3.0932710339 3.1078652246 
3.1078652246 3.0932710339 3.0786768432 3.0786768432 3.0786768432 3.0786768432 3.0786768432 3.0786768432 3.0932710339 
3.1078652246 3.1078652246 3.1078652246 3.1078652246 3.0932710339 3.0786768432 3.0786768432 3.0932710339 3.1078652246 
3.1078652246 3.0932710339 3.0786768432 3.0786768432 3.0786768432 3.0932710339 3.1078652246 3.1078652246 3.1078652246 
3.0932710339 3.0786768432 3.0786768432 3.0786768432 3.0932710339 3.1078652246 3.1078652246 3.0932710339 3.0786768432 
3.0786768432 3.0932710339 3.0932710339 3.1078652246 3.1078652246 3.0932710339 3.0786768432 3.0786768432 3.0786768432 
3.0932710339 3.1078652246 3.1078652246 3.1078652246 3.1078652246 3.0932710339 3.0786768432 3.0786768432 3.0786768432 
3.0932710339 3.1078652246 3.1078652246 3.1078652246 3.0932710339 3.0786768432 3.0786768432 3.0932710339 3.1078652246 
3.1078652246 3.0932710339 3.0786768432 3.0786768432 3.0786768432 3.0932710339 3.1078652246 3.1078652246 3.1078652246 
3.0932710339 3.0786768432 3.0786768432 3.0786768432 3.0932710339 3.1078652246 3.1078652246 3.0932710339 3.0786768432 
3.0786768432 3.0932710339 3.1078652246 3.1078652246 3.1078652246 3.0932710339 3.0786768432 3.0786768432 3.0786768432 
3.0932710339 3.1078652246 3.1078652246 3.1078652246 3.0932710339 3.0932710339 3.0786768432 3.0786768432 3.0786768432 
3.0932710339 3.0932710339 3.1078652246 3.1078652246 3.0932710339 3.0786768432 3.0786768432 3.0932710339 3.1078652246 
3.1078652246 3.0932710339 3.0786768432 3.0786768432 3.0786768432 3.0932710339 3.1078652246 3.1078652246 3.1078652246 
3.0932710339 3.0786768432 3.0786768432 3.0786768432 3.0932710339 3.1078652246 3.1078652246 3.1078652246 3.0932710339 
3.0786768432 3.0786768432 3.0932710339 3.1078652246 3.1078652246 3.0932710339 3.0786768432 3.0786768432 3.0932710339 
3.1078652246 3.1078652246 3.1078652246 3.0932710339 3.0786768432 3.0786768432 3.0786768432 3.0932710339 3.1078652246 
3.1078652246 3.0932710339 3.0786768432 3.0786768432 3.0932710339 3.1078652246 3.1078652246 3.0932710339 3.0786768432 
3.0786768432 3.0932710339 3.1078652246 3.1078652246 3.0932710339 3.0786768432 3.0786768432 3.0786768432 3.0932710339 
3.1078652246 3.1078652246 3.1078652246 3.0932710339 3.0786768432 3.0786768432 3.0786768432 3.0932710339 3.0932710339 
3.1078652246 3.1078652246 3.1078652246 3.0932710339 3.0786768432 3.0786768432 3.0786768432 3.0932710339 3.1078652246 
3.1078652246 3.0932710339 3.0786768432 3.0786768432 3.0932710339 3.1078652246 3.1078652246 3.0932710339 3.0786768432 
3.0786768432 3.0932710339 3.1078652246 3.1078652246 3.0932710339 3.0786768432 3.0786768432 3.0932710339 3.1078652246 
3.1078652246 3.1078652246 3.0932710339 3.0786768432 3.0786768432 3.0932710339 3.1078652246 3.1078652246 3.1078652246 
3.0932710339 3.0786768432 3.0786768432 3.0932710339 3.1078652246 3.1078652246 3.1078652246 3.0932710339 3.0786768432 
3.0786768432 3.0786768432 3.0932710339 3.1078652246 3.1078652246 3.0932710339 3.0786768432 3.0786768432 3.0932710339 
3.1078652246 3.1224594153 3.1224594153 3.1224594153 3.1224594153 3.1224594153 3.1224594153 3.1078652246 3.0932710339 
3.0932710339 3.0786768432 3.0786768432 3.0932710339 3.1078652246 3.1224594153 3.1224594153 3.1224594153 3.1224594153 
3.1224594153 3.1078652246 3.0932710339 3.0786768432 3.0786768432 3.0932710339 3.1078652246 3.1078652246 3.1224594153 
3.1224594153 3.1224594153 3.1224594153 3.1078652246 3.0932710339 3.0786768432 3.0786768432 3.0932710339 3.0932710339 
3.1078652246 3.1224594153 3.1224594153 3.1224594153 3.1078652246 3.0932710339 3.0786768432 3.0786768432 3.0786768432 
3.0932710339 3.1078652246 3.1224594153 3.1224594153 3.1224594153 3.1224594153 3.1224594153 3.1078652246 3.0932710339 
3.0786768432 3.0786768432 3.0932710339 3.1078652246 3.1224594153 3.1224594153 3.1224594153 3.1078652246 3.1078652246 
3.0932710339 3.0786768432 3.0786768432 3.0932710339 3.1078652246 3.1078652246 3.1224594153 3.1224594153 3.1078652246 
3.0932710339 3.0786768432 3.0786768432 3.0932710339 3.1078652246 3.1224594153 3.1224594153 3.1224594153 3.1224594153 
3.1078652246 3.0932710339 3.0786768432 3.0786768432 3.0932710339 3.1078652246 3.1224594153 3.1224594153 3.1078652246 
3.0932710339 3.0786768432 3.0786768432 3.0932710339 3.0932710339 3.1078652246 3.1224594153 3.1224594153 3.1224594153 
3.1224594153 3.1078652246 3.0932710339 3.0786768432 3.0786768432 3.0932710339 3.1078652246 3.1078652246 3.1224594153 
3.1224594153 3.1078652246 3.0932710339 3.0786768432 3.0786768432 3.0786768432 3.0932710339 3.1078652246 3.1224594153 
3.1224594153 3.1078652246 3.0932710339 3.0786768432 3.0786768432 3.0786768432 3.0786768432 3.0640826525 3.0640826525 
3.0640826525 3.0786768432 3.0932710339 3.1078652246 3.1224594153 3.1224594153 3.1224594153 3.1078652246 3.0932710339 
3.0786768432 3.0786768432 3.0786768432 3.0786768432 3.0786768432 3.0640826525 3.0640826525 3.0640826525 3.0640826525 
3.0640826525 3.0640826525 3.0640826525 3.0640826525 3.0786768432 3.0932710339 3.1078652246 3.1224594153 3.1224594153 
3.1224594153 3.1078652246 3.1078652246 3.0932710339 3.0786768432 3.0786768432 3.0786768432 3.0786768432 3.0786768432 
3.0786768432 3.0640826525 3.0640826525 3.0640826525 3.0786768432 3.0932710339 3.1078652246 3.1078652246 3.1224594153 
3.1224594153 3.1224594153 3.1078652246 3.0932710339 3.0786768432 3.0786768432 3.0786768432 3.0786768432 3.0786768432 
3.0640826525 3.0640826525 3.0640826525 3.0786768432 3.0932710339 3.1078652246 3.1224594153 3.1224594153 3.1078652246 
3.0932710339 3.0786768432 3.0786768432 3.0786768432 3.0786768432 3.0786768432 3.0640826525 3.0640826525 3.0640826525 
3.0786768432 3.0932710339 3.1078652246 3.1224594153 3.1224594153 3.1224594153 3.1224594153 3.1078652246 3.0932710339 
3.0786768432 3.0786768432 3.0786768432 3.0786768432 3.0786768432 3.0640826525 3.0640826525 3.0640826525 3.0786768432 
3.0932710339 3.1078652246 3.1224594153 3.1224594153 3.1078652246 3.0932710339 3.0786768432 3.0786768432 3.0786768432 
3.0786768432 3.0640826525 3.0640826525 3.0640826525 3.0786768432 3.0932710339 3.1078652246 3.1224594153 3.1224594153 
3.1224594153 3.1078652246 3.0932710339 3.0786768432 3.0786768432 3.0786768432 3.0786768432 3.0640826525 3.0640826525 
3.0786768432 3.0932710339 3.1078652246 3.1078652246 3.1224594153 3.1224594153 3.1078652246 3.0932710339 3.0786768432 
3.0786768432 3.0786768432 3.0786768432 3.0786768432 3.0786768432 3.0640826525 3.0640826525 3.0640826525 3.0640826525 
3.0786768432 3.0932710339 3.1078652246 3.1224594153 3.1224594153 3.1224594153 3.1078652246 3.0932710339 3.0786768432 
3.0786768432 3.0786768432 3.0786768432 3.0640826525 3.0640826525 3.0786768432 3.0932710339 3.0932710339 3.1078652246 
3.1224594153 3.1224594153 3.1224594153 3.1078652246 3.0932710339 3.0786768432 3.0786768432 3.0786768432 3.0640826525 
3.0640826525 3.0640826525 3.0640826525 3.0786768432 3.0932710339 3.1078652246 3.1224594153 3.137053606 3.137053606 
3.137053606 3.137053606 3.137053606 3.137053606 3.1224594153 3.1078652246 3.1078652246 3.0932710339 3.0786768432 
3.0786768432 3.0786768432 3.0786768432 3.0640826525 3.0640826525 3.0786768432 3.0932710339 3.1078652246 3.1224594153 
3.137053606 3.137053606 3.137053606 3.137053606 3.1224594153 3.1078652246 3.0932710339 3.0932710339 3.0786768432 
3.0786768432 3.0786768432 3.0786768432 3.0640826525 3.0640826525 3.0786768432 3.0932710339 3.1078652246 3.1078652246 
3.1224594153 3.1224594153 3.137053606 3.137053606 3.137053606 3.1224594153 3.1224594153 3.1078652246 3.0932710339 
3.0786768432 3.0786768432 3.0786768432 3.0640826525 3.0640826525 3.0786768432 3.0932710339 3.1078652246 3.1224594153 
3.137053606 3.137053606 3.137053606 3.1224594153 3.1078652246 3.0932710339 3.0786768432 3.0786768432 3.0786768432 
3.0640826525 3.0640826525 3.0786768432 3.0932710339 3.1078652246 3.1224594153 3.1224594153 3.137053606 3.137053606 
3.137053606 3.1224594153 3.1078652246 3.0932710339 3.0786768432 3.0786768432 3.0786768432 3.0640826525 3.0640826525 
3.0786768432 3.0932710339 3.1078652246 3.1078652246 3.1224594153 3.137053606 3.137053606 3.137053606 3.1224594153 
3.1078652246 3.0932710339 3.0786768432 3.0786768432 3.0786768432 3.0786768432 3.0640826525 3.0640826525 3.0640826525 
3.0640826525 3.0786768432 3.0932710339 3.1078652246 3.1224594153 3.1224594153 3.137053606 3.137053606 3.137053606 
3.1224594153 3.1078652246 3.0932710339 3.0786768432 3.0786768432 3.0786768432 3.0786768432 3.0640826525 3.0640826525 
3.0786768432 3.0932710339 3.0932710339 3.1078652246 3.1224594153 3.137053606 3.137053606 3.137053606 3.137053606 
3.1224594153 3.1078652246 3.0932710339 3.0786768432 3.0786768432 3.0786768432 3.0786768432 3.0640826525 3.0640826525 
3.0786768432 3.0932710339 3.1078652246 3.1224594153 3.137053606 3.137053606 3.1224594153 3.1078652246 3.0932710339 
3.0786768432 3.0786768432 3.0786768432 3.0640826525 3.0494884618 3.0494884618 3.0494884618 3.0494884618 3.0494884618 
3.0640826525 3.0786768432 3.0932710339 3.1078652246 3.1078652246 3.1224594153 3.1224594153 3.137053606 3.137053606 
3.137053606 3.137053606 3.1224594153 3.1078652246 3.0932710339 3.0786768432 3.0786768432 3.0786768432 3.0640826525 
3.0494884618 3.0494884618 3.0494884618 3.0494884618 3.0640826525 3.0786768432 3.0932710339 3.1078652246 3.1224594153 
3.137053606 3.137053606 3.1224594153 3.1224594153 3.1078652246 3.0932710339 3.0786768432 3.0786768432 3.0786768432 
3.0786768432 3.0640826525 3.0640826525 3.0494884618 3.0494884618 3.0494884618 3.0494884618 3.0640826525 3.0786768432 
3.0932710339 3.1078652246 3.1224594153 3.137053606 3.137053606 3.137053606 3.1224594153 3.1078652246 3.0932710339 
3.0786768432 3.0786768432 3.0786768432 3.0640826525 3.0494884618 3.0494884618 3.0640826525 3.0786768432 3.0932710339 
3.0932710339 3.1078652246 3.1224594153 3.1224594153 3.137053606 3.137053606 3.137053606 3.1224594153 3.1078652246 
3.0932710339 3.0786768432 3.0786768432 3.0786768432 3.0786768432 3.0640826525 3.0494884618 3.0494884618 3.0494884618 
3.0640826525 3.0786768432 3.0932710339 3.1078652246 3.1078652246 3.1224594153 3.137053606 3.137053606 3.1224594153 
3.1078652246 3.0932710339 3.0786768432 3.0786768432 3.0786768432 3.0786768432 3.0786768432 3.0640826525 3.0494884618 
3.0494884618 3.0494884618 3.0640826525 3.0786768432 3.0932710339 3.1078652246 3.1224594153 3.137053606 3.137053606 
3.1224594153 3.1078652246 3.0932710339 3.0932710339 3.0786768432 3.0786768432 3.0786768432 3.0640826525 3.0494884618 
3.0494884618 3.0494884618 3.0640826525 3.0786768432 3.0932710339 3.1078652246 3.1224594153 3.137053606 3.137053606 
3.137053606 3.1224594153 3.1078652246 3.0932710339 3.0786768432 3.0786768432 3.0786768432 3.0640826525 3.0494884618 
3.0494884618 3.0640826525 3.0786768432 3.0786768432 3.0932710339 3.1078652246 3.1078652246 3.1224594153 3.1224594153 
3.137053606 3.137053606 3.137053606 3.1224594153 3.1078652246 3.0932710339 3.0786768432 3.0786768432 3.0786768432 
3.0786768432 3.0640826525 3.0494884618 3.0494884618 3.0640826525 3.0786768432 3.0932710339 3.1078652246 3.1224594153 
3.137053606 3.137053606 3.1224594153 3.1078652246 3.0932710339 3.0786768432 3.0786768432 3.0786768432 3.0786768432 
3.0786768432 3.0640826525 3.0494884618 3.0494884618 3.0494884618 3.0640826525 3.0786768432 3.0932710339 3.0932710339 
3.1078652246 3.1224594153 3.137053606 3.137053606 3.137053606 3.1224594153 3.1078652246 3.0932710339 3.0786768432 
3.0786768432 3.0786768432 3.0786768432 3.0640826525 3.0640826525 3.0494884618 3.0348942711 3.0348942711 3.0348942711 
3.0348942711 3.0494884618 3.0640826525 3.0786768432 3.0932710339 3.1078652246 3.1224594153 3.137053606 3.137053606 
3.1224594153 3.1078652246 3.0932710339 3.0786768432 3.0786768432 3.0786768432 3.0786768432 3.0640826525 3.0494884618 
3.0348942711 3.0348942711 3.0348942711 3.0348942711 3.0494884618 3.0494884618 3.0640826525 3.0786768432 3.0932710339 
3.1078652246 3.1224594153 3.1224594153 3.137053606 3.137053606 3.1224594153 3.1078652246 3.0932710339 3.0786768432 
3.0640826525 3.0640826525 3.0640826525 3.0640826525 3.0640826525 3.0640826525 3.0786768432 3.0786768432 3.0786768432 
3.0640826525 3.0494884618 3.0348942711 3.0348942711 3.0348942711 3.0348942711 3.0494884618 3.0640826525 3.0786768432 
3.0932710339 3.1078652246 3.1078652246 3.1224594153 3.137053606 3.137053606 3.1224594153 3.1224594153 3.1078652246 
3.0932710339 3.0786768432 3.0640826525 3.0640826525 3.0640826525 3.0786768432 3.0786768432 3.0786768432 3.0786768432 
3.0640826525 3.0494884618 3.0348942711 3.0348942711 3.0494884618 3.0640826525 3.0786768432 3.0932710339 3.1078652246 
3.1224594153 3.1224594153 3.137053606 3.137053606 3.1224594153 3.1078652246 3.0932710339 3.0786768432 3.0786768432 
3.0640826525 3.0640826525 3.0640826525 3.0786768432 3.0786768432 3.0786768432 3.0786768432 3.0786768432 3.0786768432 
3.0640826525 3.0494884618 3.0348942711 3.0348942711 3.0494884618 3.0640826525 3.0786768432 3.0932710339 3.1078652246 
3.1224594153 3.137053606 3.137053606 3.137053606 3.1224594153 3.1078652246 3.0932710339 3.0786768432 3.0640826525 
3.0640826525 3.0640826525 3.0640826525 3.0786768432 3.0786768432 3.0640826525 3.0494884618 3.0494884618 3.0348942711 
3.0348942711 3.0203000804 3.0203000804 3.0203000804 3.0203000804 3.0348942711 3.0348942711 3.0494884618 3.0640826525 
3.0786768432 3.0786768432 3.0932710339 3.1078652246 3.1224594153 3.137053606 2.9619233175 2.9619233175 2.9765175082 
2.9765175082 2.991111699 2.991111699 3.0057058897 3.0057058897 3.0203000804 3.0203000804 3.0348942711 3.0348942711 
3.0494884618 3.0494884618 3.0640826525 3.0640826525 3.0786768432 3.0786768432 3.0932710339 3.0932710339 3.1078652246 
3.1078652246 3.1224594153 3.1224594153 3.137053606 3.137053606 2.9619233175 2.9765175082 2.991111699 3.0057058897 
3.0203000804 3.0348942711 3.0494884618 3.0640826525 3.0786768432 3.0932710339 3.1078652246 3.1224594153 3.137053606 
2.9619233175 2.9765175082 2.991111699 3.0057058897 3.0203000804 3.0348942711 3.0494884618 3.0640826525 3.0786768432 
3.0932710339 3.1078652246 3.1224594153 3.137053606 2.9619233175 2.9765175082 2.991111699 3.0057058897 3.0203000804 
3.0348942711 3.0494884618 3.0640826525 3.0786768432 3.0932710339 3.1078652246 3.1224594153 3.137053606 2.9619233175 
2.9765175082 2.991111699 3.0057058897 3.0203000804 3.0348942711 3.0494884618 3.0640826525 3.0786768432 3.0932710339 
3.1078652246 3.1224594153 3.137053606 2.9619233175 2.9765175082 2.991111699 3.0057058897 3.0203000804 3.0348942711 
3.0494884618 3.0640826525 3.0786768432 3.0932710339 3.1078652246 3.1224594153 3.137053606 2.9619233175 2.9765175082 
2.991111699 3.0057058897 3.0203000804 3.0348942711 3.0494884618 3.0640826525 3.0786768432 3.0932710339 3.1078652246 
3.1224594153 3.137053606 2.9619233175 2.9765175082 2.991111699 3.0057058897 3.0203000804 3.0348942711 3.0494884618 
3.0640826525 3.0786768432 3.0932710339 3.1078652246 3.1224594153 3.137053606 2.9619233175 2.9765175082 2.991111699 
3.0057058897 3.0203000804 3.0348942711 3.0494884618 3.0640826525 3.0786768432 3.0932710339 3.1078652246 3.1224594153 
3.137053606 2.9619233175 2.9765175082 2.991111699 3.0057058897 3.0203000804 3.0348942711 3.0494884618 3.0640826525 
3.0786768432 3.0932710339 3.1078652246 3.1224594153 3.137053606 3.137053606 3.1224594153 3.1078652246 3.1078652246 