# vtk DataFile Version 4.2
vtk output
ASCII
DATASET POLYDATA
POINTS 6432 float
2461.89 -3159.16 5800 2464.84 -3164.53 5800 2493.84 -3161.86 5800 
2499.93 -3159.16 5800 2454.74 -3146.16 5800 2522.84 -3147.97 5800 
2526.3 -3146.16 5800 2447.95 -3133.16 5800 2551.09 -3133.15 5800 
2442.12 -3120.16 5800 2551.85 -3132.76 5800 2575.88 -3120.15 5800 
2436.29 -3107.16 5800 2580.85 -3117.55 5800 2600.67 -3107.15 5800 
2430.46 -3094.15 5800 2435.84 -3106.16 5800 2609.85 -3102.33 5800 
2625.46 -3094.15 5800 2424.63 -3081.15 5800 2638.85 -3087.12 5800 
2650.25 -3081.15 5800 2418.8 -3068.15 5800 2667.86 -3071.91 5800 
2675.04 -3068.14 5800 2412.97 -3055.15 5800 2696.86 -3056.7 5800 
2699.83 -3055.14 5800 2407.14 -3042.15 5800 2724.62 -3042.14 5800 
2401.31 -3029.15 5800 2406.85 -3041.5 5800 2725.86 -3041.49 5800 
2749.41 -3029.14 5800 2395.48 -3016.15 5800 2754.86 -3026.28 5800 
2774.2 -3016.14 5800 2389.65 -3003.15 5800 2783.86 -3011.07 5800 
2798.99 -3003.13 5800 2383.82 -2990.15 5800 2812.87 -2995.38 5800 
2817.1 -2990.13 5800 2377.99 -2977.15 5800 2822.69 -2977.13 5800 
2372.16 -2964.15 5800 2377.85 -2976.85 5800 2828.27 -2964.13 5800 
2366.33 -2951.15 5800 2833.85 -2951.13 5800 2360.5 -2938.14 5800 
2839.44 -2938.13 5800 2354.67 -2925.14 5800 2841.87 -2932.46 5800 
2845.02 -2925.13 5800 2348.84 -2912.14 5800 2348.86 -2912.19 5800 
2850.6 -2912.13 5800 2343.01 -2899.14 5800 2856.19 -2899.12 5800 
2337.18 -2886.14 5800 2861.77 -2886.12 5800 2331.34 -2873.14 5800 
2867.35 -2873.12 5800 2325.51 -2860.14 5800 2870.88 -2864.91 5800 
2872.94 -2860.12 5800 2319.68 -2847.14 5800 2319.86 -2847.53 5800 
2878.52 -2847.12 5800 2313.85 -2834.14 5800 2884.1 -2834.12 5800 
2308.02 -2821.14 5800 2889.69 -2821.12 5800 2302.19 -2808.14 5800 
2895.27 -2808.12 5800 2296.36 -2795.14 5800 2899.88 -2797.37 5800 
2900.85 -2795.11 5800 2290.53 -2782.14 5800 2290.86 -2782.88 5800 
2906.44 -2782.11 5800 2282.84 -2769.13 5800 2912.02 -2769.11 5800 
2260.27 -2756.13 5800 2261.87 -2757.04 5800 2917.6 -2756.11 5800 
2237.4 -2743.13 5800 2923.19 -2743.11 5800 2214.54 -2730.13 5800 
2232.87 -2740.55 5800 2928.77 -2730.11 5800 2191.68 -2717.13 5800 
2203.87 -2724.06 5800 2928.89 -2729.83 5800 2934.35 -2717.11 5800 
2168.22 -2704.13 5800 2174.87 -2707.58 5800 2939.94 -2704.11 5800 
2141.93 -2691.13 5800 2145.87 -2693.02 5800 2945.52 -2691.11 5800 
2114.75 -2678.13 5800 2116.87 -2679.15 5800 2950.99 -2678.1 5800 
2087.57 -2665.13 5800 2087.87 -2665.28 5800 2956.04 -2665.1 5800 
2060.38 -2652.13 5800 2957.9 -2660.19 5800 2960.88 -2652.1 5800 
2033.2 -2639.13 5800 2058.87 -2651.41 5800 2965.66 -2639.1 5800 
2006.02 -2626.13 5800 2029.87 -2637.54 5800 2970.45 -2626.1 5800 
1978.84 -2613.13 5800 2000.87 -2623.67 5800 2975.24 -2613.1 5800 
1966.21 -2600.13 5800 1971.87 -2609.8 5800 2980.03 -2600.1 5800 
1961.26 -2587.13 5800 2984.81 -2587.1 5800 1961.4 -2574.13 5800 
2986.9 -2581.42 5800 2989.6 -2574.09 5800 1961.55 -2561.13 5800 
2994.39 -2561.09 5800 1961.69 -2548.13 5800 2999.18 -2548.09 5800 
1961.83 -2535.13 5800 3003.96 -2535.09 5800 1961.98 -2522.13 5800 
3008.75 -2522.09 5800 1962.12 -2509.13 5800 3014.36 -2509.09 5800 
1962.26 -2496.12 5800 3015.91 -2507.48 5800 3026.95 -2496.09 5800 
1962.41 -2483.12 5800 3039.55 -2483.09 5800 1962.55 -2470.12 5800 
3044.91 -2477.55 5800 3052.15 -2470.08 5800 1962.69 -2457.12 5800 
3064.74 -2457.08 5800 1962.84 -2444.12 5800 3073.92 -2447.61 5800 
3077.34 -2444.08 5800 1962.98 -2431.12 5800 3089.93 -2431.08 5800 
1963.12 -2418.12 5800 3102.53 -2418.08 5800 1963.27 -2405.12 5800 
3102.92 -2417.68 5800 3115.13 -2405.08 5800 1963.41 -2392.12 5800 
3127.72 -2392.08 5800 1963.55 -2379.12 5800 3131.92 -2387.74 5800 
3140.32 -2379.07 5800 1963.7 -2366.11 5800 3152.92 -2366.07 5800 
1963.84 -2353.11 5800 3160.93 -2357.81 5800 3165.51 -2353.07 5800 
1963.98 -2340.11 5800 3178.11 -2340.07 5800 1964.13 -2327.11 5800 
3189.93 -2327.87 5800 3190.71 -2327.07 5800 1964.27 -2314.11 5800 
3203.3 -2314.07 5800 1964.42 -2301.11 5800 3213.83 -2301.07 5800 
1964.56 -2288.11 5800 3216.62 -2288.06 5800 1964.7 -2275.11 5800 
3218.27 -2275.06 5800 1964.85 -2262.11 5800 3218.94 -2268.2 5800 
3219.53 -2262.06 5800 1964.99 -2249.11 5800 3220.8 -2249.06 5800 
1965.13 -2236.1 5800 3222.06 -2236.06 5800 1965.31 -2223.1 5800 
3223.33 -2223.06 5800 1965.49 -2210.1 5800 3224.6 -2210.06 5800 
1965.67 -2197.1 5800 3225.86 -2197.06 5800 1965.87 -2184.1 5800 
3227.13 -2184.06 5800 1966.19 -2171.1 5800 3228.39 -2171.06 5800 
1966.51 -2158.1 5800 3229.66 -2158.05 5800 1966.83 -2145.1 5800 
3230.92 -2145.05 5800 1967.15 -2132.1 5800 3232.19 -2132.05 5800 
1967.47 -2119.1 5800 3233.45 -2119.05 5800 1967.79 -2106.09 5800 
3234.72 -2106.05 5800 1968.11 -2093.09 5800 3235.99 -2093.05 5800 
1968.42 -2080.09 5800 3237.25 -2080.05 5800 1968.74 -2067.09 5800 
3238.52 -2067.05 5800 1969.06 -2054.09 5800 3239.78 -2054.05 5800 
1969.38 -2041.09 5800 3241.05 -2041.05 5800 1969.7 -2028.09 5800 
3242.31 -2028.04 5800 1968.35 -2015.09 5800 3243.58 -2015.04 5800 
1965.07 -2002.09 5800 3244.84 -2002.04 5800 1961.8 -1989.09 5800 
3246.11 -1989.04 5800 1958.53 -1976.08 5800 3247.38 -1976.04 5800 
1955.25 -1963.08 5800 3247.96 -1970.03 5800 3248.64 -1963.04 5800 
1951.98 -1950.08 5800 3249.91 -1950.04 5800 1948.71 -1937.08 5800 
3251.17 -1937.04 5800 1945.43 -1924.08 5800 3252.44 -1924.04 5800 
1942.16 -1911.08 5800 1942.92 -1914.1 5800 3253.55 -1911.03 5800 
1938.89 -1898.08 5800 3254.57 -1898.03 5800 1935.61 -1885.08 5800 
3255.53 -1885.03 5800 1932.34 -1872.08 5800 3256.49 -1872.03 5800 
1929.07 -1859.08 5800 3257.45 -1859.03 5800 1925.79 -1846.08 5800 
3258.42 -1846.03 5800 1922.52 -1833.07 5800 3259.38 -1833.03 5800 
1919.25 -1820.07 5800 3260.34 -1820.03 5800 1915.97 -1807.07 5800 
3261.3 -1807.03 5800 1913.01 -1794.07 5800 1913.93 -1798.95 5800 
3262.26 -1794.03 5800 1911.2 -1781.07 5800 3263.22 -1781.02 5800 
1911.9 -1768.07 5800 3264.18 -1768.02 5800 1913.93 -1759.72 5800 
1915.35 -1755.07 5800 3265.14 -1755.02 5800 1918.36 -1742.07 5800 
3266.1 -1742.02 5800 1921.38 -1729.07 5800 3267.06 -1729.02 5800 
1924.54 -1716.07 5800 3268.21 -1716.02 5800 1927.7 -1703.06 5800 
3268.84 -1703.02 5800 1930.85 -1690.06 5800 3269.45 -1690.02 5800 
1934.01 -1677.06 5800 3270.04 -1677.02 5800 1937.17 -1664.06 5800 
3270.62 -1664.02 5800 1940.33 -1651.06 5800 3271.17 -1651.01 5800 
1942.94 -1640.32 5800 1943.49 -1638.06 5800 3271.71 -1638.01 5800 
1946.65 -1625.06 5800 3272.24 -1625.01 5800 1949.81 -1612.06 5800 
3272.74 -1612.01 5800 1952.97 -1599.06 5800 3273.24 -1599.01 5800 
1956.13 -1586.05 5800 3273.72 -1586.01 5800 1959.28 -1573.05 5800 
3274.34 -1573.01 5800 1962.44 -1560.05 5800 3274.01 -1560.01 5800 
1965.6 -1547.05 5800 3272.11 -1547.01 5800 1968.78 -1534.05 5800 
3271.62 -1534.01 5800 1971.92 -1521.05 5800 3271.86 -1521 5800 
1971.95 -1520.92 5800 1975.16 -1508.05 5800 3272.56 -1508 5800 
1978.53 -1495.05 5800 3272.96 -1495 5800 1981.49 -1482.05 5800 
3273.36 -1482 5800 1982.34 -1469.04 5800 3273.76 -1469 5800 
1983.21 -1456.04 5800 3274.17 -1456 5800 1984.08 -1443.04 5800 
3274.57 -1443 5800 1984.95 -1430.04 5800 3274.97 -1430 5800 
1985.82 -1417.04 5800 3275.37 -1417 5800 1986.69 -1404.04 5800 
3275.77 -1403.99 5800 1987.56 -1391.04 5800 3276.18 -1390.99 5800 
1988.43 -1378.04 5800 3276.58 -1377.99 5800 1989.3 -1365.04 5800 
3276.98 -1364.99 5800 1990.17 -1352.04 5800 3277.01 -1364.03 5800 
3277.38 -1351.99 5800 1991.05 -1339.03 5800 3277.78 -1338.99 5800 
1991.92 -1326.03 5800 3278.18 -1325.99 5800 1992.64 -1313.03 5800 
3278.59 -1312.99 5800 1993.02 -1300.03 5800 3278.99 -1299.99 5800 
1993.41 -1287.03 5800 3279.39 -1286.99 5800 1993.8 -1274.03 5800 
3279.79 -1273.98 5800 1994.18 -1261.03 5800 3280.19 -1260.98 5800 
1994.57 -1248.03 5800 3280.59 -1247.98 5800 1994.96 -1235.03 5800 
3281 -1234.98 5800 1995.34 -1222.03 5800 3281.4 -1221.98 5800 
1995.73 -1209.02 5800 3281.8 -1208.98 5800 1996.11 -1196.02 5800 
3282.2 -1195.98 5800 1996.5 -1183.02 5800 3282.6 -1182.98 5800 
1996.89 -1170.02 5800 3283 -1169.98 5800 1997.27 -1157.02 5800 
3283.42 -1156.98 5800 1997.67 -1144.02 5800 3283.84 -1143.97 5800 
1998.21 -1131.02 5800 3284.28 -1130.97 5800 1998.69 -1118.02 5800 
3284.71 -1117.97 5800 1999.13 -1105.02 5800 3285.15 -1104.97 5800 
2000.3 -1092.02 5800 3285.62 -1091.97 5800 2000.99 -1086.58 5800 
2001.82 -1079.01 5800 3286.15 -1078.97 5800 2004.94 -1066.01 5800 
3285.66 -1065.97 5800 2009.22 -1053.01 5800 3285.23 -1052.97 5800 
2012.3 -1040.01 5800 3284.89 -1039.97 5800 2014.62 -1027.01 5800 
3284.56 -1026.97 5800 2017.04 -1014.01 5800 3284.23 -1013.96 5800 
2019.56 -1001.01 5800 3283.91 -1000.96 5800 2022.2 -988.006 5800 
3283.6 -987.963 5800 2024.96 -975.005 5800 2573.4 -974.986 5800 
2581.01 -976.396 5800 2586.78 -974.986 5800 3283.36 -974.962 5800 
2027.85 -962.004 5800 2535.19 -961.987 5800 2552.01 -972.099 5800 
2610.02 -969.309 5800 2639.02 -962.222 5800 2640 -961.983 5800 
3283.13 -961.961 5800 2030 -952.722 5800 2030.52 -949.003 5800 
2515.19 -948.986 5800 2523.01 -953.829 5800 2668.02 -955.136 5800 
2693.21 -948.98 5800 3282.89 -948.96 5800 2032.33 -936.002 5800 
2494.17 -935.986 5800 2697.02 -948.061 5800 2726.02 -941.78 5800 
2750.97 -935.977 5800 3282.49 -935.959 5800 2033.97 -923.001 5800 
2472.52 -922.986 5800 2494.01 -935.891 5800 2755.02 -934.718 5800 
2760.47 -922.976 5800 3281.66 -922.958 5800 2035.46 -910 5800 
2450.36 -909.986 5800 2465.01 -918.581 5800 2766.38 -909.975 5800 
3281 -909.957 5800 2037 -896.999 5800 2428.19 -896.985 5800 
2436.01 -901.573 5800 2772.34 -896.973 5800 3279.34 -896.956 5800 
2038.58 -883.998 5800 2406.56 -883.985 5800 2407.01 -884.564 5800 
2778.31 -883.972 5800 3277.04 -887.088 5800 3276.21 -883.955 5800 
2040.21 -870.997 5800 2397.53 -870.984 5800 2784.03 -871.504 5800 
2784.28 -870.971 5800 3273.17 -870.954 5800 2041.88 -857.996 5800 
2390.49 -857.984 5800 2790.33 -857.97 5800 3270.28 -857.953 5800 
2043.54 -844.995 5800 2384.84 -844.983 5800 2796.21 -844.969 5800 
[...]
POINT_DATA 6432
SCALARS Pressure double
LOOKUP_TABLE default
3.0932710339 3.0932710339 3.0932710339 3.0932710339 3.0932710339 3.0932710339 3.0932710339 3.0932710339 3.0932710339 
3.0932710339 3.0932710339 3.0932710339 3.0932710339 3.0932710339 3.0932710339 3.0932710339 3.0932710339 3.0932710339 
3.0932710339 3.0932710339 3.0932710339 3.0932710339 3.0932710339 3.0932710339 3.0932710339 3.0932710339 3.0932710339 
3.0932710339 3.0932710339 3.0932710339 3.0932710339 3.0932710339 3.0932710339 3.0932710339 3.0932710339 3.0932710339 
3.0932710339 3.0932710339 3.0932710339 3.0932710339 3.0932710339 3.0932710339 3.0932710339 3.0932710339 3.0932710339 
3.0932710339 3.0932710339 3.0932710339 3.0932710339 3.0932710339 3.0932710339 3.0932710339 3.0932710339 3.0932710339 
3.0932710339 3.0932710339 3.0932710339 3.0932710339 3.0932710339 3.0932710339 3.0932710339 3.0932710339 3.0932710339 
3.0932710339 3.0932710339 3.0932710339 3.0932710339 3.0932710339 3.0932710339 3.0932710339 3.0932710339 3.0932710339 
3.0932710339 3.0932710339 3.0932710339 3.0932710339 3.0932710339 3.0932710339 3.0932710339 3.0932710339 3.0932710339 
3.0932710339 3.0932710339 3.0932710339 3.0932710339 3.0932710339 3.0932710339 3.0932710339 3.0932710339 3.0932710339 
3.0932710339 3.0932710339 3.0932710339 3.0932710339 3.0932710339 3.0932710339 3.0932710339 3.0932710339 3.0932710339 
3.0932710339 3.0932710339 3.0932710339 3.0932710339 3.0932710339 3.0932710339 3.0932710339 3.0932710339 3.0932710339 
3.0932710339 3.0932710339 3.0932710339 3.0932710339 3.0932710339 3.0932710339 3.0932710339 3.0932710339 3.0932710339 
3.0932710339 3.0932710339 3.0932710339 3.0932710339 3.0932710339 3.0932710339 3.0932710339 3.0932710339 3.0932710339 
3.0932710339 3.0932710339 3.0932710339 3.0932710339 3.0932710339 3.0932710339 3.0932710339 3.0932710339 3.0932710339 
3.0932710339 3.0932710339 3.0932710339 3.0932710339 3.0932710339 3.0932710339 3.0932710339 3.0932710339 3.0932710339 
3.0932710339 3.0932710339 3.0932710339 3.0932710339 3.0932710339 3.0932710339 3.0932710339 3.0932710339 3.0932710339 
3.0932710339 3.0932710339 3.0932710339 3.0932710339 3.0932710339 3.0932710339 3.0932710339 3.0932710339 3.0932710339 
3.0932710339 3.0932710339 3.0932710339 3.0932710339 3.0932710339 3.0932710339 3.0932710339 3.0932710339 3.0932710339 
3.0932710339 3.0932710339 3.0932710339 3.0932710339 3.0932710339 3.0932710339 3.0932710339 3.0932710339 3.0932710339 
3.0932710339 3.0932710339 3.0932710339 3.0932710339 3.0932710339 3.0932710339 3.0932710339 3.0932710339 3.0932710339 
3.0932710339 3.0932710339 3.0932710339 3.0932710339 3.0932710339 3.0932710339 3.0932710339 3.0932710339 3.0932710339 
3.0932710339 3.0932710339 3.0932710339 3.0932710339 3.0932710339 3.0932710339 3.0932710339 3.0932710339 3.0932710339 
3.0932710339 3.0932710339 3.0932710339 3.0932710339 3.0932710339 3.0932710339 3.0932710339 3.0932710339 3.0932710339 
3.0932710339 3.0932710339 3.0932710339 3.0932710339 3.0932710339 3.0932710339 3.0932710339 3.0932710339 3.0932710339 
3.0932710339 3.0932710339 3.0932710339 3.0932710339 3.0932710339 3.0932710339 3.0932710339 3.0932710339 3.0932710339 
3.0932710339 3.0932710339 3.0932710339 3.0932710339 3.0932710339 3.0932710339 3.0932710339 3.0932710339 3.0932710339 
3.0932710339 3.0932710339 3.0932710339 3.0932710339 3.0932710339 3.0932710339 3.0932710339 3.0932710339 3.0932710339 
3.0932710339 3.0932710339 3.0932710339 3.0932710339 3.0932710339 3.0932710339 3.0932710339 3.0932710339 3.0932710339 
3.0932710339 3.0932710339 3.0932710339 3.0932710339 3.0932710339 3.0932710339 3.0932710339 3.0932710339 3.0932710339 
3.0932710339 3.0932710339 3.0932710339 3.0932710339 3.0932710339 3.0932710339 3.0932710339 3.0932710339 3.0932710339 
3.0932710339 3.0932710339 3.0932710339 3.0932710339 3.0932710339 3.0932710339 3.0932710339 3.0932710339 3.0932710339 
3.0932710339 3.0932710339 3.0932710339 3.0932710339 3.0932710339 3.0932710339 3.0932710339 3.0932710339 3.0932710339 
3.0932710339 3.0932710339 3.0932710339 3.0932710339 3.0932710339 3.0932710339 3.0932710339 3.0932710339 3.0932710339 
3.0932710339 3.0932710339 3.0932710339 3.0932710339 3.0932710339 3.0932710339 3.0932710339 3.0932710339 3.0932710339 
3.0932710339 3.0932710339 3.0932710339 3.0932710339 3.0932710339 3.0932710339 3.0932710339 3.0932710339 3.0932710339 
3.0932710339 3.0932710339 3.0932710339 3.0932710339 3.0932710339 3.0932710339 3.0932710339 3.0932710339 3.0932710339 
3.0932710339 3.0932710339 3.0932710339 3.0932710339 3.0932710339 3.0932710339 3.0932710339 3.0932710339 3.0932710339 
3.0932710339 3.0932710339 3.0932710339 3.0932710339 3.0932710339 3.0932710339 3.0932710339 3.0932710339 3.0932710339 
3.0932710339 3.0932710339 3.0932710339 3.0932710339 3.0932710339 3.0932710339 3.0932710339 3.0932710339 3.0932710339 
3.0932710339 3.0932710339 3.0932710339 3.0932710339 3.0932710339 3.0932710339 3.0932710339 3.0932710339 3.0932710339 
3.0932710339 3.0932710339 3.0932710339 3.0932710339 3.0932710339 3.0932710339 3.0932710339 3.0932710339 3.0932710339 
3.0932710339 3.0932710339 3.0932710339 3.0932710339 3.0932710339 3.0932710339 3.0932710339 3.0932710339 3.0932710339 
3.0932710339 3.0932710339 3.1078652246 3.1078652246 3.1078652246 3.0932710339 3.0932710339 3.1078652246 3.1078652246 
3.1078652246 3.1078652246 3.1078652246 3.0932710339 3.0932710339 3.0932710339 3.1078652246 3.1078652246 3.1078652246 
3.1078652246 3.0932710339 3.0932710339 3.1078652246 3.1078652246 3.1078652246 3.1078652246 3.0932710339 3.0932710339 
3.1078652246 3.1078652246 3.1078652246 3.1078652246 3.0932710339 3.0932710339 3.1078652246 3.1078652246 3.1078652246 
3.0932710339 3.0932710339 3.1078652246 3.1078652246 3.1078652246 3.0932710339 3.0932710339 3.1078652246 3.1078652246 
3.1078652246 3.0932710339 3.0932710339 3.0932710339 3.1078652246 3.1078652246 3.1078652246 3.0932710339 3.0932710339 
3.1078652246 3.1078652246 3.0932710339 3.0932710339 3.1078652246 3.1078652246 3.0932710339 3.0932710339 3.1078652246 
3.1078652246 3.0932710339 3.0932710339 3.1078652246 3.1078652246 3.1078652246 3.0932710339 3.0932710339 3.1078652246 
3.1078652246 3.1078652246 3.0932710339 3.0932710339 3.1078652246 3.1078652246 3.0932710339 3.0932710339 3.1078652246 
3.1078652246 3.1078652246 3.0932710339 3.0932710339 3.1078652246 3.1078652246 3.0932710339 3.0932710339 3.1078652246 
3.1078652246 3.1078652246 3.0932710339 3.0932710339 3.0932710339 3.1078652246 3.1078652246 3.1078652246 3.0932710339 
3.0932710339 3.0932710339 3.1078652246 3.1078652246 3.1078652246 3.0932710339 3.0932710339 3.1078652246 3.1078652246 
3.0932710339 3.0932710339 3.0932710339 3.1078652246 3.1078652246 3.0932710339 3.0932710339 3.0932710339 3.1078652246 
3.1078652246 3.1078652246 3.0932710339 3.0932710339 3.1078652246 3.1078652246 3.1078652246 3.0932710339 3.0932710339 
3.1078652246 3.1078652246 3.0932710339 3.0932710339 3.1078652246 3.1078652246 3.0932710339 3.0932710339 3.1078652246 
3.1078652246 3.0932710339 3.0932710339 3.1078652246 3.1078652246 3.0932710339 3.0932710339 3.1078652246 3.1224594153 
3.1224594153 3.1224594153 3.1078652246 3.0932710339 3.0932710339 3.1078652246 3.1224594153 3.1224594153 3.1224594153 
3.1224594153 3.1078652246 3.1078652246 3.0932710339 3.0932710339 3.1078652246 3.1224594153 3.1224594153 3.1224594153 
3.1224594153 3.1224594153 3.1078652246 3.0932710339 3.0932710339 3.1078652246 3.1078652246 3.1224594153 3.1224594153 
3.1224594153 3.1078652246 3.0932710339 3.0932710339 3.1078652246 3.1224594153 3.1224594153 3.1224594153 3.1078652246 
3.0932710339 3.0932710339 3.1078652246 3.1224594153 3.1224594153 3.1224594153 3.1078652246 3.1078652246 3.0932710339 
3.0932710339 3.1078652246 3.1224594153 3.1224594153 3.1224594153 3.1078652246 3.0932710339 3.0932710339 3.0932710339 
3.1078652246 3.1224594153 3.1224594153 3.1224594153 3.1078652246 3.0932710339 3.0932710339 3.1078652246 3.1224594153 
3.1224594153 3.1224594153 3.1078652246 3.0932710339 3.0932710339 3.1078652246 3.1078652246 3.1224594153 3.1224594153 
3.1224594153 3.1078652246 3.0932710339 3.0786768432 3.0786768432 3.0786768432 3.0786768432 3.0932710339 3.1078652246 
3.1224594153 3.1224594153 3.1078652246 3.1078652246 3.0932710339 3.0932710339 3.0786768432 3.0786768432 3.0786768432 
3.0932710339 3.1078652246 3.1224594153 3.1224594153 3.1224594153 3.1078652246 3.0932710339 3.0786768432 3.0786768432 
3.0786768432 3.0932710339 3.1078652246 3.1224594153 3.1224594153 3.1224594153 3.1078652246 3.0932710339 3.0786768432 
3.0786768432 3.0786768432 3.0786768432 3.0786768432 3.0786768432 3.0786768432 3.0786768432 3.0932710339 3.1078652246 
3.1224594153 3.1224594153 3.1078652246 3.0932710339 3.0786768432 3.0786768432 3.0786768432 3.0786768432 3.0786768432 
3.0786768432 3.0786768432 3.0932710339 3.1078652246 3.1224594153 3.1224594153 3.1078652246 3.0932710339 3.0786768432 
3.0786768432 3.0786768432 3.0786768432 3.0786768432 3.0786768432 3.0786768432 3.0786768432 3.0786768432 3.0932710339 
3.1078652246 3.1224594153 3.137053606 3.137053606 3.137053606 3.137053606 3.1224594153 3.1224594153 3.1078652246 
3.1078652246 3.0932710339 3.0786768432 3.0786768432 3.0786768432 3.0786768432 3.0786768432 3.0786768432 3.0786768432 
3.0932710339 3.1078652246 3.1224594153 3.1224594153 3.137053606 3.137053606 3.137053606 3.137053606 3.1224594153 
3.1078652246 3.0932710339 3.0786768432 3.0786768432 3.0786768432 3.0786768432 3.0786768432 3.0932710339 3.1078652246 
3.1224594153 3.137053606 3.137053606 3.137053606 3.1224594153 3.1078652246 3.0932710339 3.0786768432 3.0786768432 
3.0786768432 3.0786768432 3.0786768432 3.0932710339 3.0932710339 3.1078652246 3.1224594153 3.137053606 3.137053606 
3.137053606 3.1224594153 3.1078652246 3.0932710339 3.0786768432 3.0786768432 3.0786768432 3.0786768432 3.0786768432 
3.0786768432 3.0932710339 3.1078652246 3.1224594153 3.137053606 3.137053606 3.137053606 3.137053606 3.1224594153 
3.1224594153 3.1078652246 3.0932710339 3.0786768432 3.0786768432 3.0786768432 3.0786768432 3.0786768432 3.0786768432 
3.0786768432 3.0932710339 3.1078652246 3.1224594153 3.137053606 3.137053606 3.1224594153 3.1078652246 3.0932710339 
3.0786768432 3.0786768432 3.0786768432 3.0786768432 3.0786768432 3.0932710339 3.1078652246 3.1224594153 3.1224594153 
3.137053606 3.137053606 3.137053606 3.1224594153 3.1078652246 3.1078652246 3.0932710339 3.0786768432 3.0786768432 
3.0786768432 3.0786768432 3.0786768432 3.0932710339 3.1078652246 3.1224594153 3.137053606 3.137053606 3.137053606 
3.1224594153 3.1078652246 3.0932710339 3.0786768432 3.0786768432 3.0786768432 3.0786768432 3.0786768432 3.0786768432 
3.0786768432 3.0932710339 3.1078652246 3.1224594153 3.137053606 3.137053606 3.1224594153 3.1224594153 3.1078652246 
3.0932710339 3.0786768432 3.0786768432 3.0786768432 3.0786768432 3.0932710339 3.1078652246 3.1224594153 3.137053606 
3.137053606 3.1224594153 3.1078652246 3.0932710339 3.0786768432 3.0786768432 3.0786768432 3.0786768432 3.0932710339 
3.1078652246 3.1078652246 3.1224594153 3.137053606 3.137053606 3.137053606 3.137053606 3.1224594153 3.1078652246 
3.0932710339 3.0786768432 3.0786768432 3.0786768432 3.0786768432 3.0786768432 3.0786768432 3.0786768432 3.0932710339 
3.1078652246 3.1224594153 3.137053606 3.1516477967 3.1516477967 3.1516477967 3.137053606 3.1224594153 3.1078652246 
3.0932710339 3.0786768432 3.0786768432 3.0786768432 3.0786768432 3.0932710339 3.1078652246 3.1224594153 3.1224594153 
3.137053606 3.1516477967 3.1516477967 3.1516477967 3.1516477967 3.137053606 3.1224594153 3.1078652246 3.0932710339 
3.0786768432 3.0786768432 3.0786768432 3.0786768432 3.0786768432 3.0786768432 3.0932710339 3.1078652246 3.1224594153 
3.137053606 3.137053606 3.1516477967 3.1516477967 3.1516477967 3.1516477967 3.137053606 3.1224594153 3.1224594153 
3.1078652246 3.0932710339 3.0786768432 3.0786768432 3.0786768432 3.0786768432 3.0932710339 3.1078652246 3.1224594153 
3.137053606 3.1516477967 3.1516477967 3.1516477967 3.137053606 3.137053606 3.1224594153 3.1078652246 3.0932710339 
3.0786768432 3.0786768432 3.0786768432 3.0786768432 3.0786768432 3.0932710339 3.1078652246 3.1224594153 3.137053606 
3.1516477967 3.1516477967 3.1516477967 3.137053606 3.1224594153 3.1078652246 3.0932710339 3.0786768432 3.0786768432 
3.0786768432 3.0786768432 3.0786768432 3.0932710339 3.1078652246 3.1224594153 3.137053606 3.1516477967 3.1516477967 
3.1516477967 3.137053606 3.1224594153 3.1078652246 3.0932710339 3.0786768432 3.0786768432 3.0786768432 3.0786768432 
3.0932710339 3.1078652246 3.1224594153 3.1224594153 3.137053606 3.137053606 3.1516477967 3.1516477967 3.137053606 
3.1224594153 3.1078652246 3.0932710339 3.0786768432 3.0786768432 3.0786768432 3.0786768432 3.0640826525 3.0640826525 
3.0640826525 3.0640826525 3.0640826525 3.0640826525 3.0786768432 3.0786768432 3.0932710339 3.1078652246 3.1224594153 
3.137053606 3.1516477967 3.1516477967 3.1516477967 3.1516477967 3.137053606 3.1224594153 3.1078652246 3.0932710339 
3.0786768432 3.0786768432 3.0786768432 3.0640826525 3.0640826525 3.0640826525 3.0640826525 3.0640826525 3.0786768432 
3.0932710339 3.1078652246 3.1224594153 3.137053606 3.1516477967 3.1516477967 3.137053606 3.1224594153 3.1078652246 
3.0932710339 3.0786768432 3.0786768432 3.0786768432 3.0786768432 3.0640826525 3.0640826525 3.0640826525 3.0786768432 
3.0932710339 3.1078652246 3.1224594153 3.137053606 3.1516477967 3.1516477967 3.1662419875 3.1662419875 3.1662419875 
3.1662419875 3.1516477967 3.137053606 3.137053606 3.1224594153 3.1078652246 3.0932710339 3.0786768432 3.0786768432 
3.0786768432 3.0640826525 3.0640826525 3.0786768432 3.0932710339 3.1078652246 3.1224594153 3.137053606 3.137053606 
3.1516477967 3.1662419875 3.1662419875 3.1662419875 3.1662419875 3.1662419875 3.1516477967 3.137053606 3.1224594153 
3.1078652246 3.0932710339 3.0786768432 3.0786768432 3.0786768432 3.0640826525 3.0640826525 3.0640826525 3.0640826525 
3.0786768432 3.0932710339 3.1078652246 3.1078652246 3.1224594153 3.137053606 3.1516477967 3.1516477967 3.1662419875 
3.1662419875 3.1516477967 3.137053606 3.1224594153 3.1078652246 3.0932710339 3.0786768432 3.0786768432 3.0786768432 
3.0786768432 3.0786768432 3.0786768432 3.0640826525 3.0640826525 3.0786768432 3.0932710339 3.1078652246 3.1224594153 
3.137053606 3.1516477967 3.1662419875 3.1662419875 3.1662419875 3.1516477967 3.137053606 3.1224594153 3.1078652246 
3.0932710339 3.0786768432 3.0786768432 3.0786768432 3.0640826525 3.0640826525 3.0786768432 3.0932710339 3.1078652246 
3.1224594153 3.1224594153 3.137053606 3.137053606 3.1516477967 3.1662419875 3.1662419875 3.1662419875 3.1516477967 
3.137053606 3.1224594153 3.1078652246 3.0932710339 3.0932710339 3.0786768432 3.0786768432 3.0786768432 3.0786768432 
3.0640826525 3.0494884618 3.0494884618 3.0494884618 3.0494884618 3.0494884618 3.0640826525 3.0786768432 3.0932710339 
3.1078652246 3.1224594153 3.137053606 3.1516477967 3.1662419875 3.1662419875 3.1516477967 3.137053606 3.1224594153 
3.1078652246 3.0932710339 3.0786768432 3.0786768432 3.0786768432 3.0786768432 3.0786768432 3.0786768432 3.0786768432 
3.0640826525 3.0494884618 3.0494884618 3.0494884618 3.0640826525 3.0640826525 3.0786768432 3.0786768432 3.0932710339 
3.1078652246 3.1224594153 3.137053606 3.1516477967 3.1516477967 3.1662419875 3.1662419875 3.1662419875 3.1516477967 
3.137053606 3.137053606 3.1224594153 3.1078652246 3.0932710339 3.0786768432 3.0786768432 3.0640826525 3.0640826525 
3.0640826525 3.0786768432 3.0786768432 3.0786768432 3.0786768432 3.0640826525 3.0640826525 3.0494884618 3.0494884618 
3.0494884618 3.0640826525 3.0786768432 3.0932710339 3.1078652246 3.1224594153 3.137053606 3.1516477967 3.1662419875 
3.1662419875 3.1662419875 3.1516477967 3.137053606 3.1224594153 3.1224594153 3.1078652246 3.0932710339 3.0786768432 
3.0640826525 3.0640826525 3.0640826525 3.0640826525 3.0786768432 3.0786768432 3.0640826525 3.0494884618 3.0494884618 
3.0494884618 3.0640826525 3.0786768432 3.0786768432 3.0932710339 3.1078652246 3.1224594153 3.1224594153 3.137053606 
3.137053606 3.1516477967 3.1662419875 3.1662419875 3.1516477967 3.137053606 3.1224594153 3.1078652246 3.1078652246 
3.0932710339 3.0786768432 3.0640826525 3.0640826525 3.0640826525 3.0640826525 3.0786768432 3.0786768432 3.0786768432 
3.0640826525 3.0494884618 3.0348942711 3.0348942711 3.0348942711 3.0348942711 3.0348942711 3.0494884618 3.0640826525 
3.0786768432 3.0932710339 3.1078652246 3.1078652246 3.1224594153 3.137053606 3.1516477967 3.1516477967 2.9473291268 
2.9473291268 2.9619233175 2.9619233175 2.9765175082 2.9765175082 2.991111699 2.991111699 3.0057058897 3.0057058897 
3.0203000804 3.0203000804 3.0348942711 3.0348942711 3.0494884618 3.0494884618 3.0640826525 3.0640826525 3.0786768432 
3.0786768432 3.0932710339 3.0932710339 3.1078652246 3.1078652246 3.1224594153 3.1224594153 3.137053606 3.137053606 
3.1516477967 3.1516477967 2.9473291268 2.9619233175 2.9765175082 2.991111699 3.0057058897 3.0203000804 3.0348942711 
3.0494884618 3.0640826525 3.0786768432 3.0932710339 3.1078652246 3.1224594153 3.137053606 3.1516477967 3.1662419875 
2.9473291268 2.9619233175 2.9765175082 2.991111699 3.0057058897 3.0203000804 3.0348942711 3.0494884618 3.0640826525 
3.0786768432 3.0932710339 3.1078652246 3.1224594153 3.137053606 3.1516477967 3.1662419875 2.9473291268 2.9619233175 
2.9765175082 2.991111699 3.0057058897 3.0203000804 3.0348942711 3.0494884618 3.0640826525 3.0786768432 3.0932710339 
3.1078652246 3.1224594153 3.137053606 3.1516477967 3.1662419875 2.9473291268 2.9619233175 2.9765175082 2.991111699 
3.0057058897 3.0203000804 3.0348942711 3.0494884618 3.0640826525 3.0786768432 3.0932710339 3.1078652246 3.1224594153 
3.137053606 3.1516477967 3.1662419875 2.9473291268 2.9619233175 2.9765175082 2.991111699 3.0057058897 3.0203000804 
3.0348942711 3.0494884618 3.0640826525 3.0786768432 3.0932710339 3.1078652246 3.1224594153 3.137053606 3.1516477967 
3.1662419875 2.9473291268 2.9619233175 2.9765175082 2.991111699 3.0057058897 3.0203000804 3.0348942711 3.0494884618 
3.0640826525 3.0786768432 3.0932710339 3.1078652246 3.1224594153 3.137053606 3.1516477967 3.1662419875 2.9473291268 
2.9619233175 2.9765175082 2.991111699 3.0057058897 3.0203000804 3.0348942711 3.0494884618 3.0640826525 3.0786768432 
3.0932710339 3.1078652246 3.1224594153 3.137053606 3.1516477967 3.1662419875 2.9473291268 2.9619233175 2.9765175082 
2.991111699 3.0057058897 3.0203000804 3.0348942711 3.0494884618 3.0640826525 3.0786768432 3.0932710339 3.1078652246 
3.1224594153 3.137053606 3.1516477967 3.1662419875 2.9473291268 2.9619233175 2.9765175082 2.991111699 3.0057058897 
3.0203000804 3.0348942711 3.0494884618 3.0640826525 3.0786768432 3.0932710339 3.1078652246 3.1224594153 3.137053606 
3.1516477967 3.1662419875 2.9473291268 2.9619233175 2.9765175082 2.991111699 3.0057058897 3.0203000804 3.0348942711 
3.0494884618 3.0640826525 3.0786768432 3.0932710339 3.1078652246 3.1224594153 3.137053606 3.1516477967 2.9473291268 
2.9619233175 2.9765175082 2.991111699 3.0057058897 3.0203000804 3.0348942711 3.0494884618 3.0640826525 3.0786768432 
3.0932710339 3.1078652246 3.1224594153 3.137053606 3.1516477967 2.9473291268 2.9619233175 2.9765175082 2.991111699 
3.0057058897 3.0203000804 3.0348942711 3.0494884618 3.0640826525 3.0786768432 3.0932710339 3.1078652246 3.1224594153 
3.137053606 2.9473291268 2.9619233175 2.9765175082 2.991111699 3.0057058897 3.0203000804 3.0348942711 3.0494884618 
3.0640826525 3.0786768432 3.0932710339 3.1078652246 3.1224594153 3.137053606 2.9473291268 2.9619233175 2.9765175082 
2.991111699 3.0057058897 3.0203000804 3.0348942711 3.0494884618 3.0640826525 3.0786768432 3.0932710339 3.1078652246 
3.1224594153 3.137053606 3.137053606 3.1224594153 3.1078652246 3.0932710339 3.0786768432 3.0640826525 3.0640826525 
3.0640826525 3.0786768432 3.0786768432 3.0640826525 3.0494884618 3.0348942711 3.0348942711 3.0494884618 3.0494884618 
3.0640826525 3.0786768432 3.0932710339 3.1078652246 3.1224594153 2.9473291268 2.9473291268 2.9619233175 2.9619233175 