# vtk DataFile Version 4.2
vtk output
ASCII
DATASET UNSTRUCTURED_GRID
POINTS 1740 double
2144.07 -94.44003 0 2911 0 0 16.54298 -37.82236 0 
5.09149 -21.30132 0 1.27433 -10.75385 0 0 0 0 
2.54575 15.14293 0 6.36291 23.76126 0 14.00014 34.89063 0 
30.50239 50.70793 0 33.39435 -52.93479 0 2050.91 -103.7862 0 
60.1465 -69.72165 0 88.83633 -83.2817 0 118.7656 -94.71113 0 
153.4168 -105.7022 0 199.5806 -117.771 0 261.4466 -130.7139 0 
345.846 -144.1892 0 460.3522 -157.0592 0 608.4185 -167.1903 0 
783.2313 -172.4016 0 941.0559 -172.4533 0 1063.409 -170.1096 0 
1164.153 -166.8746 0 1263.449 -162.682 0 1375.468 -156.8941 0 
1513.293 -148.414 0 1665.281 -137.5317 0 1791.864 -127.3721 0 
2195.451 -89.09491 0 2273.924 -80.67077 0 2383.731 -68.3513 0 
2517.64 -52.47337 0 2649.227 -35.9232 0 2740.773 -23.82991 0 
2804.387 -15.13419 0 2848.802 -8.916218 0 2881.944 -4.196067 0 
56.61447 67.79801 0 84.09687 81.25172 0 112.4783 92.48395 0 
142.1748 102.3504 0 174.8563 111.6168 0 213.124 120.8806 0 
260.3759 130.5151 0 324.6539 141.1779 0 418.1422 152.9178 0 
535.6656 162.9871 0 690.9154 170.4255 0 902.6513 172.7852 0 
1100.32 169.0517 0 1270.99 162.3262 0 1462.794 151.6837 0 
1631.287 140.0952 0 1747.993 131 0 1922.788 115.9027 0 
2069.56 101.951 0 2128.804 96.0021 0 2297.147 78.11721 0 
2414.379 64.80104 0 2554.023 47.99319 0 2673.693 32.73885 0 
2757.97 21.50315 0 2814.297 13.7575 0 2852.02 8.460961 0 
2882.272 4.148909 0 1791.052 127.4402 0 1366.894 157.3738 0 
1444.38 -152.8302 0 1547.039 146.1296 0 1589.287 -143.1614 0 
1878.731 119.8675 0 1997.072 108.9828 0 1185.654 166.0472 0 
1882.536 -119.5292 0 1971.323 -111.4145 0 1684.777 136.0292 0 
2099.317 -98.9855 0 2234.809 84.9091 0 2181.695 90.53914 0 
1728.573 -132.5703 0 1718.815 133.3509 0 1834.825 123.7132 0 
1960.305 112.4444 0 2033.69 105.4648 0 2099.184 98.99892 0 
2214.291 -74.143858484 396.8421 2955.512 16.749131532 396.8421 158.0786 -30.667447133 396.8421 
147.0109 -14.850860402 396.8421 143.3217 -4.7319024897 396.8421 142.09 5.6008038171 396.8421 
144.5505 20.176667561 396.8421 148.2398 28.486349953 396.8421 155.621 39.233264215 396.8421 
171.5701 54.540539711 396.8421 174.3652 -45.096241182 396.8421 2124.254 -83.349683291 396.8421 
200.2206 -61.073556721 396.8421 227.9488 -73.934781592 396.8421 256.8748 -84.738388303 396.8421 
290.3647 -95.089763322 396.8421 334.981 -106.4034279 396.8421 394.7733 -118.45623167 396.8421 
476.3434 -130.8753676 396.8421 587.0114 -142.51983427 396.8421 730.1145 -151.3230396 396.8421 
899.0676 -155.24778685 396.8421 1051.602 -154.34860739 396.8421 1169.853 -151.38696153 396.8421 
1267.221 -147.71491394 396.8421 1363.188 -143.15194559 396.8421 1471.452 -137.01561881 396.8421 
1604.657 -128.2061565 396.8421 1751.55 -117.08669735 396.8421 1873.891 -106.83157577 396.8421 
2263.949 -68.900516498 396.8421 2339.792 -60.666173965 396.8421 2445.918 -48.684308251 396.8421 
2575.338 -33.336914117 396.8421 2702.515 -17.442310142 396.8421 2790.992 -5.8877735089 396.8421 
2852.473 2.391905495 396.8421 2895.4 8.2985104738 396.8421 2927.431 12.774919226 396.8421 
196.807 71.129134233 396.8421 223.3682 84.229870156 396.8421 250.7983 95.200699434 396.8421 
279.4994 104.86696246 396.8421 311.0855 113.97537074 396.8421 348.0705 123.11651549 396.8421 
393.7383 132.6710378 396.8421 455.8617 143.3222319 396.8421 546.2162 155.19574884 396.8421 
659.8003 165.61994557 396.8421 809.846 173.7567632 396.8421 1014.485 177.3549453 396.8421 
1205.528 174.96573309 396.8421 1370.477 169.4826271 396.8421 1555.851 160.27268882 396.8421 
1718.696 149.93700268 396.8421 1831.49 141.69099433 396.8421 2000.426 127.81650888 396.8421 
2142.278 114.83027105 396.8421 2199.537 109.25208198 396.8421 2362.236 92.351617433 396.8421 
2475.539 79.654184974 396.8421 2610.501 63.503802508 396.8421 2726.16 48.738569208 396.8421 
2807.613 37.803628069 396.8421 2862.05 30.238021459 396.8421 2898.509 25.052424967 396.8421 
2927.749 20.823665604 396.8421 1873.106 138.43863257 396.8421 1463.165 165.24470527 396.8421 
1538.054 -132.77348862 396.8421 1637.272 155.34762795 396.8421 1678.104 -122.81840874 396.8421 
1957.846 131.47978601 396.8421 2072.22 121.39326497 396.8421 1288 172.57601788 396.8421 
1961.524 -98.97855106 396.8421 2047.334 -90.902109746 396.8421 1770.393 146.26285927 396.8421 
2171.038 -78.61494015 396.8421 2301.989 98.791501389 396.8421 2250.655 104.10981033 396.8421 
1812.721 -112.06578365 396.8421 1803.29 143.83156313 396.8421 1915.411 135.02018432 396.8421 
2036.686 124.61088158 396.8421 2107.61 118.11410532 396.8421 2170.909 112.0650575 396.8421 
2284.511 -57.042835746 793.6842 3000.027 31.084186975 793.6842 299.6143 -24.485542337 793.6842 
288.9304 -9.3373706665 793.6842 285.3691 0.37112915169 793.6842 284.1801 10.297436026 793.6842 
286.5551 24.320960829 793.6842 290.1167 32.327127582 793.6842 297.2417 42.694423377 793.6842 
312.6379 57.487997718 793.6842 315.336 -38.272794803 793.6842 2197.597 -66.123341881 793.6842 
340.2947 -53.499130733 793.6842 367.0612 -65.719402685 793.6842 394.9839 -75.95460855 793.6842 
427.3123 -85.730380143 793.6842 470.3812 -96.37174523 793.6842 528.0998 -107.64206329 793.6842 
606.8411 -119.14717494 793.6842 713.6708 -129.75191354 793.6842 851.8104 -137.45575631 793.6842 
1014.904 -140.34610574 793.6842 1162.147 -138.70547098 793.6842 1276.298 -135.27456969 793.6842 
1370.288 -131.27810704 793.6842 1462.927 -126.44624773 793.6842 1567.436 -120.06417137 793.6842 
1696.021 -111.03218072 793.6842 1837.82 -99.766642274 793.6842 1955.917 -89.468361948 793.6842 
2332.447 -51.886467045 793.6842 2405.659 -43.809981274 793.6842 2508.105 -32.101351566 793.6842 
2633.037 -17.173153024 793.6842 2755.801 -1.7872794262 793.6842 2841.209 9.3537683294 793.6842 
2900.561 17.316110437 793.6842 2941.997 22.986153889 793.6842 2972.917 27.277821712 793.6842 
336.9995 73.559531626 793.6842 362.6396 86.28530819 793.6842 389.1182 96.968511006 793.6842 
416.8239 106.40469066 793.6842 447.3145 115.31989966 793.6842 483.0167 124.29476464 793.6842 
527.1009 133.7125547 793.6842 587.0697 144.27104516 793.6842 674.2905 156.15423193 793.6842 
783.9349 166.77037706 793.6842 928.7766 175.38321594 793.6842 1126.317 179.91525848 793.6842 
1310.735 178.59670219 793.6842 1469.963 174.13723996 793.6842 1648.908 166.14277943 793.6842 
1806.105 156.90241924 793.6842 1914.987 149.417902 793.6842 2078.064 136.67330234 793.6842 
2214.996 124.61446323 793.6842 2270.269 119.40285818 793.6842 2427.326 103.51354678 793.6842 
2536.699 91.489340198 793.6842 2666.98 76.102845897 793.6842 2778.628 61.956027451 793.6842 
2857.255 51.435076389 793.6842 2909.806 44.135808301 793.6842 2945.001 39.123835635 793.6842 
2973.224 35.031515672 793.6842 1955.16 146.44553128 793.6842 1559.437 170.50084657 793.6842 
1631.729 -115.69992123 793.6842 1727.505 161.76372505 793.6842 1766.921 -105.55851092 793.6842 
2036.96 140.05373885 793.6842 2147.368 130.72247974 793.6842 1390.347 176.7098566 793.6842 
2040.511 -81.62844313 793.6842 2123.346 -73.601021611 793.6842 1856.009 153.57751827 793.6842 
2242.759 -61.448546183 793.6842 2369.167 109.58466281 793.6842 2319.614 114.58337374 793.6842 
1896.869 -94.715288152 793.6842 1887.765 151.36833562 793.6842 1995.998 143.31084793 793.6842 
2113.066 133.70704803 793.6842 2181.531 127.67399198 793.6842 2242.634 122.0331737 793.6842 
2354.732 -43.038237334 1190.526 3044.539 42.780228354 1190.526 441.15 -19.217960065 1190.526 
430.8497 -4.7050019835 1190.526 427.4164 4.6097632023 1190.526 426.2701 14.143418493 1190.526 
428.5601 27.628486253 1190.526 431.9934 35.336057087 1190.526 438.8627 45.326731373 1190.526 
453.7057 59.603730945 1190.526 456.3069 -32.402413602 1190.526 2270.94 -51.986457473 1190.526 
480.3688 -46.931393639 1190.526 506.1737 -58.563573952 1190.526 533.0934 -68.282797479 1190.526 
564.26 -77.541467504 1190.526 605.7815 -87.585983514 1190.526 661.4265 -98.171731904 1190.526 
737.3385 -108.89243878 1190.526 840.33 -118.62684235 1190.526 973.5064 -125.44084305 1190.526 
1130.74 -127.53000702 1190.526 1272.693 -125.34346984 1190.526 1382.742 -121.58430444 1190.526 
1473.356 -117.37185506 1190.526 1562.666 -112.37051643 1190.526 1663.42 -105.84513265 1190.526 
1787.385 -96.702005327 1190.526 1924.09 -85.392114917 1190.526 2037.944 -75.117111962 1190.526 
2400.946 -37.967538322 1190.526 2471.527 -30.039725504 1190.526 2570.292 -18.575972957 1190.526 
2690.735 -4.0066726796 1190.526 2809.091 10.958947326 1190.526 2891.43 21.766204765 1190.526 
2948.647 29.475722661 1190.526 2988.597 34.95880124 1190.526 3018.403 39.105262866 1190.526 
477.1918 75.144626674 1190.526 501.9109 87.475832105 1190.526 527.4382 97.847946223 1190.526 
554.1485 107.02704499 1190.526 583.5435 115.71720227 1190.526 617.963 124.48650309 1190.526 
660.4633 133.7163198 1190.526 718.2775 144.10872301 1190.526 802.3645 155.88911837 1190.526 
908.0698 166.5486678 1190.526 1047.707 175.4338384 1190.526 1238.151 180.61807168 1190.526 
1415.942 180.11322329 1190.526 1569.449 176.46783992 1190.526 1741.965 169.47502214 1190.526 
1893.514 161.1669941 1190.526 1998.484 154.34770532 1190.526 2155.702 142.6185128 1190.526 
2287.714 131.42205094 1190.526 2341.001 126.55965417 1190.526 2492.415 111.66234101 1190.526 
2597.858 100.32637654 1190.526 2723.46 85.75437577 1190.526 2831.095 72.299541239 1190.526 
2906.899 62.262060427 1190.526 2957.56 55.284035245 1190.526 2991.49 50.486321835 1190.526 
3018.699 46.565309454 1190.526 2037.214 151.62375894 1190.526 1655.708 173.3227781 1190.526 
1725.403 -101.41656842 1190.526 1817.738 165.55719387 1190.526 1855.738 -91.196160588 1190.526 
2116.075 145.74145823 1190.526 2222.516 137.10343845 1190.526 1492.694 178.62266976 1190.526 
2119.498 -67.326743599 1190.526 2199.357 -59.374394951 1190.526 1941.625 158.14528957 1190.526 
2314.479 -47.376710453 1190.526 2436.346 117.36641861 1190.526 2388.573 122.05206673 1190.526 
1981.017 -80.345579142 1190.526 1972.24 156.13057581 1190.526 2076.584 148.7428036 1190.526 
[...]
POINT_DATA 1740
FIELD FieldData 1
Pressure 1 1740 double
3.1055418356 3.0183701531 3.0097688457 2.9859257282 2.9782126978 2.957446881 2.9707048284 2.9882221558 3.0192607188 
3.0329347449 3.0120778125 3.1096381284 3.0347775882 3.0495322347 3.0668720196 3.0666796264 3.0839197468 3.0888632865 
3.1108142175 3.1154672915 3.135066913 3.144058281 3.1468246385 3.1543497947 3.1492043333 3.1451067398 3.1406520093 
3.135712991 3.1277886115 3.1212465565 3.1029007973 3.0993076933 3.0937636917 3.0853793046 3.0744496292 3.0642411479 
3.0543402721 3.0454842655 3.0371143706 3.0689654567 3.0806177448 3.0934401043 3.106175825 3.1118010871 3.1193361667 
3.1261771067 3.1341142535 3.1495532099 3.1618778047 3.1774938988 3.1875042104 3.1941514332 3.1994917905 3.2042254082 
3.2079528669 3.210911051 3.2102658855 3.0974506243 3.0940878478 3.0869177984 3.0807884635 3.0718602579 3.0618300841 
3.0512576393 3.0407046373 3.0331283953 3.0316152632 3.2103100032 3.2022777925 3.1386871981 3.2059301139 3.1313309099 
3.2103870302 3.1190831775 3.201170456 3.1174988769 3.1134387318 3.2093899274 3.1073653809 3.0899045487 3.092326512 
3.1238354785 3.2106713273 3.2102985984 3.2069745613 3.100760191 3.0960657432 3.1021769501 3.0234925355 3.0275464732 
3.0010403507 3.0078576721 2.9858887982 2.993721783 3.005620426 3.0338332394 3.0522412268 3.0366549732 3.106718635 
3.0568580697 3.0696257508 3.0828521177 3.0865677529 3.1026716863 3.1120824063 3.1259274195 3.1312264735 3.1426722025 
3.1473026509 3.1515593636 3.1546195982 3.1488992951 3.1434768679 3.1366838379 3.1313865122 3.1241556456 3.1182290802 
3.0998835391 3.0956343124 3.0901337908 3.0816692372 3.0708566766 3.0608229432 3.0510770145 3.0434013796 3.0291271039 
3.0851310976 3.1057211403 3.1175203178 3.1263379431 3.13498761 3.1401265522 3.1453348964 3.154637785 3.1667511795 
3.1759433905 3.1839067719 3.1911794496 3.1975531679 3.2033208042 3.2056374524 3.2078279688 3.2115294783 3.2106751956 
3.1024851446 3.1009290389 3.0926138468 3.0862187523 3.0772553139 3.0658308612 3.0552304281 3.0452357432 3.0385667108 
3.0386959064 3.2114748842 3.2046806874 3.1348404456 3.2083616638 3.1274112944 3.211897877 3.0966704763 3.2027932226 
3.1143493901 3.1103875165 3.2099067963 3.104509828 3.0961539609 3.0990945148 3.1207513291 3.2106747481 3.210334753 
3.1288013947 3.1016315977 3.1022857808 3.0997360772 3.0241571288 3.0282085456 3.0008127588 3.0017802926 2.9841779359 
2.9964899645 3.0098378706 3.0384596257 3.059589217 3.0456012701 3.1040841001 3.0604593654 3.0796116184 3.0976312968 
3.1034006604 3.1174354683 3.1252532791 3.1393532805 3.1458359775 3.1536939378 3.1571469362 3.1574822655 3.1564971401 
3.1478594088 3.1405582929 3.1336684689 3.1274468437 3.1210446213 3.1155584305 3.0974403881 3.0933365015 3.087766859 
3.0795857498 3.0687048232 3.0585756632 3.0496080932 3.0422104865 3.0293552259 3.091814949 3.1133577678 3.1312316459 
3.1405051016 3.1525970388 3.1601062165 3.1694201576 3.1737683023 3.1818886496 3.1915509998 3.1953801191 3.2002728693 
3.2030558907 3.2093401296 3.2107949414 3.2113192894 3.213265139 3.1176755612 3.0997820676 3.0994973705 3.0945894367 
3.0883458951 3.0797884051 3.0685330995 3.0580884298 3.0481702197 3.0406486065 3.0415002252 3.2132956022 3.2103540668 
3.1310634773 3.212310586 3.1239773411 3.2140962958 3.0984093044 3.2075076209 3.1117687045 3.1077950592 3.2122425406 
3.1019082884 3.0976333375 3.0993342377 3.1178628792 3.2127382326 3.2139618578 3.0935062313 3.0989223432 3.099791615 
3.0977859328 3.0247298776 3.0287750279 3.000530287 3.0021902766 2.9825306161 2.9920187575 3.0065109163 3.039011702 
3.0603587411 3.0463300827 3.1019670192 3.066705907 3.0845299396 3.1044509665 3.1126369683 3.1257808946 3.1332818002 
3.1471832018 3.1549720962 3.1612958652 3.1633196666 3.1615096825 3.1581359249 3.1471910875 3.1392538477 3.1318349363 
3.1256530304 3.1190975543 3.1132995117 3.0952122342 3.0913072 3.0860968683 3.0780437469 3.0676378638 3.0574445759 
3.0490338726 3.0416539232 3.0297320439 3.0951899307 3.1183308675 3.1333070419 3.1453134237 3.1517815071 3.1629701696 
3.1750130545 3.1829431895 3.1908099077 3.2015981737 3.2062376717 3.2088842309 3.2108170213 3.2166331624 3.2172596246 
3.2170274448 3.2183443219 3.0955582367 3.0990674156 3.0987372146 3.0944374882 3.0884408797 3.0801015379 3.0693385028 
3.0591376806 3.0494856382 3.0416680164 3.0421840381 3.2182359725 3.2169754286 3.1294263194 3.2180080213 3.1220939898 
3.1414691308 3.0974064868 3.2144102986 3.1095254595 3.1056728409 3.2177137789 3.0997441796 3.0970257709 3.0979020643 
3.115812471 3.2178877319 3.2234185375 3.0976374382 3.0985600403 3.098880959 3.0961963691 3.0248018719 3.030716077 
3.0011470412 3.0056214345 2.9859559962 2.9933789193 3.0071595323 3.0406139951 3.0611159364 3.0481093085 3.1005314658 
3.069909354 3.0876699741 3.1055331854 3.1151491025 3.1286029554 3.1389723497 3.150737931 3.1592438029 3.1663467997 
3.1671598927 3.1636769606 3.1575761409 3.1455014003 3.137167901 3.1300931461 3.1236124518 3.1174422551 3.1115968395 
3.0939225505 3.08995738 3.0848552738 3.0769480686 3.066846426 3.0568264741 3.048671526 3.0412352144 3.030015125 
3.0962144276 3.1196467689 3.1344556209 3.1469638459 3.156004326 3.1667002464 3.1774050336 3.18271009 3.1931532385 
3.205590682 3.213369581 3.2160843817 3.2178233244 3.2228006764 3.2234308502 3.2229645933 3.2241982867 3.0963344213 
3.099612162 3.0986515893 3.0939364328 3.0879856317 3.0797675844 3.0691614828 3.0590134881 3.0495946325 3.0416698768 
3.0424149616 3.223383878 3.2232879864 3.1274104002 3.2238528746 3.1205012446 3.0887498314 3.0992262713 3.2211031617 
3.1078429707 3.1041006318 3.2234967032 3.0982119504 3.0966631056 3.0978700301 3.1142077377 3.2236448976 3.2069006738 
3.0975364754 3.0993332535 3.0992928332 3.0952217491 3.0244069409 3.0315307451 3.0020505084 3.0064884365 2.986695521 
2.9945466548 3.0083606027 3.04135475 3.0626025246 3.0498124314 3.0994522026 3.0717192145 3.0903057207 3.1069641778 
3.1171929361 3.130811725 3.1420378067 3.1545539588 3.1639908822 3.1707615556 3.1710255049 3.1657372723 3.1564683094 
3.1439798289 3.1356410178 3.1288518137 3.1223835513 3.1162477894 3.1104257774 3.0928788002 3.0889914434 3.0839458448 
3.0761831324 3.0662251889 3.0562824138 3.0482854909 3.0408526613 3.0302357991 3.0971860677 3.1209278632 3.1356909985 
3.1481800595 3.1570395299 3.1683170206 3.1801719964 3.186770103 3.1974288812 3.2094231491 3.219232477 3.2226013896 
3.2245265662 3.2296773896 3.230120945 3.2289488694 3.2300565212 3.0986133948 3.0990392718 3.0980989321 3.0930820121 
3.0871580081 3.0790739724 3.0686679043 3.0585929247 3.049337478 3.0413053315 3.0422357414 3.2311723487 3.229976426 
3.1261887269 3.229900718 3.1192791124 3.0960170532 3.0990305769 3.2276100258 3.1066919091 3.1030091575 3.2290797227 
3.0970430267 3.0958016641 3.0969923166 3.1130905971 3.2291907046 3.105685799 3.0994883176 3.0989325938 3.098859928 
3.0947125142 3.023990981 3.0316620754 3.0021494189 3.0056673007 2.9863833452 2.9945213051 3.0085908124 3.0414584389 
3.0630275468 3.0505958938 3.0989068217 3.0725696035 3.0916962571 3.1081483613 3.1189175016 3.1326226663 3.1445303193 
3.1571552599 3.1668229234 3.1749493917 3.17438142 3.1675570415 3.1551056446 3.1427240541 3.1348047478 3.1283596885 
3.121706422 3.1157370759 3.1099136307 3.0923807473 3.0885621181 3.0834570269 3.075832875 3.0658936209 3.0559907477 
3.0480312859 3.0405968913 3.0302446307 3.0975653278 3.1214904463 3.136363805 3.1489124473 3.1581748982 3.1695050009 
3.1811841326 3.1886418542 3.1996722381 3.2123874319 3.2232228409 3.2290519536 3.2311523889 3.2365370512 3.2374819918 
3.2359975371 3.2360850259 3.0952920026 3.0974449285 3.0965691964 3.0915877007 3.0858840095 3.0780141216 3.0678521901 
3.0579756184 3.048871327 3.0408055379 3.0420643923 3.2462227872 3.2372742818 3.1255564113 3.2371039505 3.1187284189 
3.0924330009 3.0976436683 3.2342273445 3.1060762958 3.1024718846 3.2353892685 3.0966575893 3.0940598962 3.0949463427 
3.112700897 3.2354024116 3.0833152102 3.0962858169 3.0975822743 3.0972770269 3.0946216336 3.0235994461 3.0318965788 
3.0022360674 3.0054748681 2.9865902147 2.9945631276 3.0086606121 3.0417165521 3.063226978 3.0508358029 3.0987867181 
3.0729982799 3.0922313708 3.1085793814 3.1197769387 3.133539155 3.1459367635 3.1588524795 3.1685265848 3.1780273892 
3.1769960802 3.1689700984 3.154548896 3.1424556047 3.1346711913 3.1286492188 3.12177766 3.1158979067 3.1100323076 
3.0923449423 3.0885889252 3.0834298346 3.0758693093 3.0658800162 3.0559409193 3.047950139 3.0405194054 3.0302063234 
3.0978159232 3.1218794926 3.1369406494 3.14952306 3.1589097395 3.1703350139 3.1820597774 3.1901987045 3.2015583668 
3.2144596433 3.2258128436 3.2328245652 3.236629177 3.242646612 3.2440697873 3.2431723074 3.2426383663 3.0923946389 
3.0952004282 3.0944807466 3.0896662826 3.0843337634 3.0767071055 3.0667741238 3.0571256114 3.048212117 3.040157855 
3.0418839003 3.2496101168 3.2441048746 3.1256943774 3.2439287611 3.1188258801 3.0892286841 3.0945106096 3.2399032289 
3.1061005862 3.1025231558 3.2424500943 3.0965745493 3.091883018 3.0930637779 3.1128800848 3.2422482408 3.0805491337 
3.0933392506 3.0948489453 3.0951186437 3.0947545142 3.023088539 3.0322253031 3.0023612083 3.0056799576 2.9868673209 
2.9948312492 3.0089671045 3.0421710203 3.063695152 3.0508060753 3.0990147402 3.0730825526 3.0922304756 3.1083437884 
3.1199636489 3.1338314128 3.1467188335 3.1599438957 3.1697931513 3.180152271 3.1788772303 3.1699958596 3.1544259181 
3.1430223668 3.1353313459 3.1294526 3.122249696 3.116238313 3.1103686871 3.0925611987 3.0888374647 3.0836113998 
3.0760831426 3.0660263354 3.0561067698 3.048020417 3.0405713361 3.0301506772 3.0983422386 3.1224595305 3.1376116975 
3.1502643564 3.1597970811 3.1712866997 3.1829839697 3.1916196564 3.2033703967 3.2163359568 3.2280482839 3.2364834156 
3.2407471409 3.2475978462 3.250039681 3.2493735325 3.2492235115 3.0898770391 3.0926728009 3.0920169333 3.0877112118 
3.0826218483 3.0751177187 3.0654246782 3.0560401848 3.0472646699 3.0392953063 3.0414366292 3.2526417004 3.2493200723 
3.1262345729 3.2496999742 3.1192593251 3.085623606 3.092360202 3.2442479008 3.1063540056 3.1027225548 3.2487965205 
3.0968212144 3.089768555 3.0909223717 3.1133008686 3.2486394449 3.0775201558 3.0908137368 3.0927420608 3.0926038854 
3.0951607427 3.0224959335 3.0326580364 3.002592142 3.0063542601 2.9871997404 2.9952251879 3.0093890024 3.0427119012 
3.0643150543 3.0504106073 3.0994671506 3.0727407625 3.0920995664 3.1083485681 3.1203147592 3.1340311439 3.1473164477 
3.1604593997 3.1711947364 3.1812119581 3.1800665682 3.1707069984 3.1544270613 3.1434468856 3.1359516799 3.1300888352 
3.1229302589 3.1165189907 3.1107740069 3.0929770088 3.0892400844 3.0838938857 3.0763820687 3.0662486767 3.0563302193 
3.0481296003 3.0406751312 3.0300137108 3.0990932128 3.1232358009 3.1386009611 3.1513205815 3.160970041 3.1725162218 
3.1842191846 3.1932376128 3.2053688609 3.2182987556 3.2302851304 3.2393736367 3.2442382169 3.2514667335 3.2548759588 
3.2546755478 3.2547741037 3.0876242799 3.0898449012 3.0893896766 3.0852824581 3.0804012595 3.0730117732 3.0636528074 
3.0546144646 3.0459800248 3.038162098 3.0407355817 3.2594584496 3.2537247277 3.1269200725 3.2548214356 3.1198241378 
3.083451884 3.0899609389 3.2477969557 3.1067396235 3.1028448351 3.2541337851 3.0972746572 3.0872226021 3.0882556152 
3.1136598071 3.25415876 3.0743839943 3.088094752 3.0901949409 3.0898262828 3.0958316552 3.02205705 3.0330956362 
3.0028341953 3.0073853246 2.9876600688 2.9957252824 3.0098634711 3.0433508143 3.0650669497 3.0498936227 3.1002265206 
3.072178066 3.0915008884 3.1079327947 3.1202216797 3.1337202776 3.1472472507 3.160529127 3.1715692384 3.1820296243 
3.1809674269 3.1714512802 3.1546722117 3.1438777725 3.1364807315 3.1306265719 3.1236366977 3.1170831259 3.1113249574 
3.093585177 3.0897960972 3.0843298025 3.076803616 3.0665634953 3.0566149519 3.0482774962 3.040860799 3.0297376109 
3.1000556029 3.1242184783 3.139866288 3.1526807226 3.162459704 3.174052807 3.1858056461 3.1951622719 3.2076621901 
3.2204892373 3.2327022204 3.2422886092 3.2472600613 3.2548156983 3.2589698728 3.2591391374 3.259436578 3.0852054085 
3.0872887905 3.0868337642 3.0828562925 3.0782469535 3.0710250603 3.0619276657 3.053188114 3.0447685115 3.0371479064 
3.0401296481 3.2678913216 3.2573504104 3.1276179026 3.2590895338 3.1204517817 3.082740406 3.0875032062 3.2508461398 
3.1072651444 3.1034096156 3.258765534 3.0980500323 3.0848049151 3.0857018817 3.1142920814 3.2588187932 3.073271219 
3.08551795 3.0876378619 3.0872309585 3.0965901442 3.0220767011 3.0334979205 3.0030122565 3.0085583343 2.9881707414 
2.9963046912 3.0103614425 3.0440928887 3.0659469739 3.0491578222 3.1009834384 3.0713492637 3.0905773491 3.107209484 
3.1197440243 3.1330765299 3.1467331755 3.160208589 3.1716652705 3.1822553583 3.1814188972 3.172401065 3.1553482897 
3.144490427 3.1371188454 3.1312074363 3.1244385502 3.1178242761 3.1120631721 3.0942531552 3.0904379327 3.0848750985 
3.0773073825 3.0669637099 3.056981215 3.0485205535 3.0411524221 3.0293398158 3.1012408251 3.1254479401 3.1413933108 
3.1543446101 3.1642329504 3.1758872411 3.1877271643 3.1973635653 3.2102502718 3.2230088847 3.2354063876 3.2452611296 
3.2502935848 3.2579182583 3.2626112014 3.263088164 3.2633797565 3.0839411581 3.0861114709 3.0853876157 3.0813356823 
3.0769564871 3.0699125467 3.0609232444 3.052373918 3.0441262178 3.0367185307 3.0399393786 3.2762069024 3.2606641403 
3.1283942332 3.2627579085 3.1211944819 3.0810048244 3.0862905515 3.2538009088 3.1079361173 3.1040988158 3.2627337163 
3.0988767083 3.0833579376 3.0841637743 3.1150888996 3.2628176352 3.0724957407 3.0839379275 3.0863481248 3.0858766998 
3.0972912193 3.0223883018 3.0338849624 3.0031466099 3.0094974215 2.9887095517 2.9969558618 3.0109251589 3.0449394207 
3.0669875583 3.0481327508 3.1016272019 3.0701921415 3.0894193474 3.1061056073 3.118631148 3.1320210911 3.1457700944 
3.1595395155 3.171261038 3.1817987621 3.1815032078 3.173399864 3.1563611096 3.1452347948 3.1378163016 3.131759154 
3.1252878272 3.1185907275 3.1128149702 3.0949038159 3.09110083 3.085451573 3.0778417553 3.0673814884 3.0573497761 
3.0487846152 3.041469606 3.0288635347 3.1026829722 3.1269805315 3.143113182 3.1562891326 3.1662723241 3.1780135513 
3.189975952 3.1998590506 3.2131628534 3.225888206 3.238375224 3.2484222214 3.2534482216 3.2610426889 3.2661144055 
3.2667681706 3.2670413054 3.0839134269 3.0855059543 3.0846861491 3.0805222329 3.0761793987 3.0691974706 3.060310495 
3.0519848519 3.0437738406 3.0365946505 3.0399665429 3.2812781444 3.2639320229 3.1291865585 3.2662778111 3.1219323263 
3.0809696461 3.0854475928 3.2568639237 3.1086478115 3.1046938873 3.2664043071 3.0995920953 3.0825427405 3.0835282161 
3.1158899957 3.2665361942 3.0725912652 3.0836168117 3.0855926161 3.0852956008 3.0979236907 3.0227961366 3.034342685 
3.0033359535 3.0103605534 2.9894021985 2.997735524 3.0116488537 3.0460116021 3.0682773697 3.0469066898 3.1022146249 
3.0687935871 3.088270396 3.1041361779 3.1165347774 3.1302460307 3.1441763659 3.1584829902 3.1705748493 3.1809224529 
3.1814586871 3.1744726272 3.157684583 3.1459552616 3.1383584002 3.1320410396 3.1259929843 3.1191910146 3.1135465929 
3.0955642074 3.0917694643 3.0860299787 3.0783792542 3.0677765441 3.0577079207 3.0490304461 3.0417453535 3.0285522861 
3.1044056992 3.1288263158 3.1450096582 3.1584649625 3.1684959969 3.1803857524 3.1925243208 3.2025842053 3.2163214371 
3.2289709708 3.2415489685 3.2516395997 3.2567625587 3.2642763161 3.2695762871 3.2703933335 3.2707499583 3.0829412144 
3.0836122308 3.0830163299 3.0790304854 3.0747467368 3.0677742725 3.0592658649 3.0512574455 3.0431132224 3.0362235054 
3.0397878486 3.2796673526 3.2672841413 3.1298126143 3.269727535 3.1225554817 3.0781624208 3.0840904878 3.2600950622 
3.1093454799 3.1053408019 3.270185099 3.1002316814 3.0810543547 3.0822508165 3.116666252 3.2703043944 3.0709583539 
3.0839822535 3.0837034524 3.0835883066 3.0985933242 3.0231905552 3.0343235118 3.00356988 3.0109477172 2.99021403 
2.9986989839 3.0125759481 3.047336096 3.0696632686 3.0454968806 3.103028774 3.0672916228 3.0869335448 3.1021781835 
3.1144021396 3.1282761481 3.1421416498 3.1572003372 3.1694855295 3.1797664896 3.1815581813 3.1757788984 3.1593350932 
3.1465182253 3.1386588164 3.1319642576 3.1265640746 3.1201814353 3.1144668487 3.0962439962 3.0923788997 3.0865758919 
3.0788937807 3.0680834631 3.0579312334 3.0491509512 3.0418324538 3.028290864 3.1060881829 3.1307812316 3.1469308444 
3.1606297976 3.1707187269 3.1826295632 3.1950849756 3.2052890655 3.2193427629 3.2320040819 3.2445295014 3.2549518474 
3.2602326613 3.2677598681 3.2732581105 3.2743958017 3.2737366748 3.0796597426 3.0801271494 3.0799181644 3.077084428 
3.0730964915 3.0662961553 3.0581780674 3.0504420875 3.0424645519 3.0357947273 3.0396689109 3.2207092089 3.2709377851 
3.1302784214 3.2736239799 3.123116243 3.0765437917 3.0802058681 3.263536647 3.1101403957 3.1060162314 3.2743488741 
3.1009511399 3.0788348619 3.0797375789 3.1177333585 3.2747741795 3.0768007662 3.0814714551 3.0799903764 3.0801245086 
3.0990891937 3.0235432767 3.0330011108 3.0028738208 3.0109327986 2.9899518484 2.9993419842 3.0132461014 3.0474490859 
3.070451604 3.0437820326 3.1034647834 3.0652280806 3.0849061678 3.1002397897 3.1125364522 3.1263797162 3.1397147026 
3.1561343849 3.1679679267 3.1788888937 3.1821386283 3.1773629931 3.1613330516 3.1471989557 3.1389821427 3.1319503953 
3.1267664814 3.1214132251 3.1152442539 3.0966644481 3.0927702261 3.0869891923 3.0791335957 3.0680909503 3.0578469688 
3.048993086 3.0415641928 3.0274834549 3.1071645495 3.1324277332 3.1484795412 3.1621879225 3.1724219846 3.1846783801 
3.1973548439 3.2076995916 3.2218918807 3.2349006133 3.2482046124 3.2578506924 3.2640032223 3.2718658427 3.2789043578 
3.2799785004 3.2782406122 3.0760673744 3.0784873366 3.0784211567 3.0771952549 3.0729670058 3.0664282626 3.0583629668 
3.0507032297 3.0428233548 3.0362814327 3.0399953009 3.0926919276 3.275554437 3.1305663332 3.2793146375 3.1234656149 
3.0755227302 3.0780797854 3.2673004186 3.1108941726 3.1066048319 3.2798746921 3.1014034897 3.0787631488 3.0787728744 
3.1184562359 3.2792742539 3.0758902805 3.0765122476 3.0786073592 3.0785113377 3.0989721784 3.0236756468 3.0316740838 
3.0010395263 3.006648898 2.988272052 2.998660394 3.0131385452 3.047011514 3.0708493824 3.0416968378 3.1030366436 
3.0638305872 3.0831531086 3.0996647667 3.1112580179 3.1253042576 3.1376381267 3.1561225506 3.167889335 3.1798630066 
3.1855665002 3.1802586935 3.1648391658 3.1478203661 3.1392627851 3.1329777436 3.1270357063 3.1202102319 3.1151403517 
3.0967139865 3.0926875008 3.0870483101 3.0793690023 3.0679673793 3.0573681038 3.0484035222 3.0407968148 3.0258217203 
3.1085019825 3.133750229 3.1501388624 3.1646074694 3.1746984451 3.1869839277 3.1995770804 3.2105738047 3.2257549958 
3.2394214563 3.2528660852 3.2659270369 3.2698208851 3.2771558584 3.2824149936 3.279828619 3.2225663814 3.0757692627 
3.0803857438 3.0800644231 3.0786517427 3.0743652947 3.0683890398 3.0598374492 3.0522249265 3.0443701935 3.0373900748 
3.0415820617 3.0716421694 3.2805212991 3.1304137983 3.2828882648 3.1235284538 3.0749580664 3.0791211815 3.2728457945 
3.1105744168 3.1062846907 3.2785904064 3.1012801536 3.0799034986 3.0799348808 3.1176094 3.2840700535 3.0727498402 
3.076353345 3.0794387372 3.080204373 3.0984309796 3.0258449984 3.032982919 3.0043891057 3.0084518825 2.9898828624 
3.0019748715 3.0166543496 3.0529011617 3.0733510543 3.0447782805 3.1019904338 3.0640394357 3.0844420401 3.1002771792 
3.1135072578 3.127147312 3.1393172169 3.15941961 3.1803265983 3.1863815371 3.1887987028 3.1815350569 3.163953945 
3.1491761406 3.1396181067 3.1325478436 3.1259447558 3.1180168938 3.1125488274 3.0954137993 3.092952932 3.0874242053 
3.0779368631 3.0680018754 3.0566497038 3.0473390292 3.038656286 3.0247008789 3.1079147269 3.1347829238 3.1562719134 
3.1703322572 3.1793668704 3.1970118649 3.2059916369 3.2165749337 3.2342421625 3.2469988668 3.2631224613 3.2713665419 