# vtk DataFile Version 4.2
vtk output
ASCII
DATASET POLYDATA
POINTS 6404 float
2412.29 -3237.17 5800 2419.16 -3250.17 5800 2574.54 -3250.16 5800 
2580.84 -3247.36 5800 2602.94 -3237.16 5800 2405.42 -3224.17 5800 
2406.83 -3226.84 5800 2609.84 -3233.98 5800 2631.12 -3224.16 5800 
2398.55 -3211.16 5800 2638.84 -3220.59 5800 2659.3 -3211.16 5800 
2391.68 -3198.16 5800 2667.85 -3207.21 5800 2687.48 -3198.15 5800 
2384.81 -3185.16 5800 2696.85 -3193.83 5800 2715.65 -3185.15 5800 
2378.54 -3172.16 5800 2725.85 -3180.45 5800 2743.83 -3172.15 5800 
2372.64 -3159.16 5800 2377.84 -3170.62 5800 2754.85 -3167.07 5800 
2772.01 -3159.15 5800 2366.74 -3146.16 5800 2783.85 -3153.68 5800 
2800.19 -3146.15 5800 2360.84 -3133.16 5800 2812.86 -3140.3 5800 
2828.37 -3133.14 5800 2354.94 -3120.16 5800 2841.86 -3126.92 5800 
2856.55 -3120.14 5800 2349.04 -3107.16 5800 2870.86 -3113.54 5800 
2878.91 -3107.14 5800 2343.14 -3094.16 5800 2348.84 -3106.72 5800 
2889.99 -3094.14 5800 2337.24 -3081.16 5800 2896.67 -3081.14 5800 
2331.34 -3068.16 5800 2899.86 -3074.56 5800 2902.99 -3068.14 5800 
2325.44 -3055.15 5800 2909.31 -3055.13 5800 2319.54 -3042.15 5800 
2319.85 -3042.82 5800 2915.63 -3042.13 5800 2313.64 -3029.15 5800 
2921.95 -3029.13 5800 2307.74 -3016.15 5800 2928.27 -3016.13 5800 
2301.84 -3003.15 5800 2928.87 -3014.9 5800 2934.59 -3003.13 5800 
2295.94 -2990.15 5800 2940.91 -2990.13 5800 2290.04 -2977.15 5800 
2290.85 -2978.93 5800 2947.23 -2977.13 5800 2284.14 -2964.15 5800 
2953.56 -2964.13 5800 2278.24 -2951.15 5800 2957.87 -2955.24 5800 
2959.88 -2951.13 5800 2272.34 -2938.15 5800 2966.2 -2938.12 5800 
2266.44 -2925.15 5800 2972.52 -2925.12 5800 2260.55 -2912.15 5800 
2261.85 -2915.03 5800 2978.84 -2912.12 5800 2254.65 -2899.15 5800 
2985.16 -2899.12 5800 2248.75 -2886.14 5800 2986.88 -2895.58 5800 
2991.48 -2886.12 5800 2242.85 -2873.14 5800 2997.8 -2873.12 5800 
2236.95 -2860.14 5800 3004.12 -2860.12 5800 2231.05 -2847.14 5800 
2232.86 -2851.13 5800 3010.44 -2847.12 5800 2225.15 -2834.14 5800 
3015.89 -2835.92 5800 3016.76 -2834.11 5800 2212.6 -2821.14 5800 
3022.98 -2821.11 5800 2194.03 -2808.14 5800 2203.86 -2815.02 5800 
3028.89 -2808.11 5800 2175.45 -2795.14 5800 3034.52 -2795.11 5800 
2156.87 -2782.14 5800 2174.86 -2794.73 5800 3039.79 -2782.11 5800 
2136.59 -2769.14 5800 2145.86 -2774.68 5800 3044.89 -2769.45 5800 
3045.03 -2769.11 5800 2114.48 -2756.14 5800 2116.86 -2757.54 5800 
3050.27 -2756.11 5800 2092.37 -2743.14 5800 3055.52 -2743.11 5800 
2070.26 -2730.14 5800 2087.86 -2740.49 5800 3060.76 -2730.1 5800 
2048.14 -2717.14 5800 2058.86 -2723.44 5800 3066 -2717.1 5800 
2026.03 -2704.14 5800 2029.86 -2706.39 5800 3071.24 -2704.1 5800 
2003.92 -2691.14 5800 3073.9 -2697.52 5800 3076.49 -2691.1 5800 
1981.81 -2678.14 5800 2000.86 -2689.34 5800 3081.73 -2678.1 5800 
1961.77 -2665.14 5800 1971.86 -2672.29 5800 3086.97 -2665.1 5800 
1954.71 -2652.14 5800 3092.21 -2652.1 5800 1951.66 -2639.14 5800 
3097.46 -2639.1 5800 1949.96 -2626.13 5800 3102.7 -2626.09 5800 
1949.56 -2613.13 5800 3102.91 -2625.58 5800 3107.94 -2613.09 5800 
1949.78 -2600.13 5800 3113.18 -2600.09 5800 1950.01 -2587.13 5800 
3118.43 -2587.09 5800 1950.23 -2574.13 5800 3123.67 -2574.09 5800 
1950.46 -2561.13 5800 3128.91 -2561.09 5800 1950.68 -2548.13 5800 
3131.91 -2553.65 5800 3134.15 -2548.09 5800 1950.91 -2535.13 5800 
3139.4 -2535.09 5800 1951.14 -2522.13 5800 3144.64 -2522.09 5800 
1951.36 -2509.13 5800 3150.44 -2509.08 5800 1951.59 -2496.12 5800 
3158.83 -2496.08 5800 1951.81 -2483.12 5800 3160.92 -2494.03 5800 
3172.02 -2483.08 5800 1952.04 -2470.12 5800 3185.21 -2470.08 5800 
1952.26 -2457.12 5800 3189.92 -2465.44 5800 3198.4 -2457.08 5800 
1952.49 -2444.12 5800 3211.59 -2444.08 5800 1952.71 -2431.12 5800 
3218.92 -2436.85 5800 3224.78 -2431.08 5800 1952.94 -2418.12 5800 
3237.97 -2418.07 5800 1953.16 -2405.12 5800 3247.93 -2408.26 5800 
3251.03 -2405.07 5800 1953.39 -2392.12 5800 3259.81 -2392.07 5800 
1953.61 -2379.12 5800 3265.02 -2379.07 5800 1953.84 -2366.11 5800 
3266.95 -2366.07 5800 1954.06 -2353.11 5800 3268.87 -2353.07 5800 
1954.29 -2340.11 5800 3270.8 -2340.07 5800 1954.51 -2327.11 5800 
3272.72 -2327.07 5800 1954.74 -2314.11 5800 3274.64 -2314.06 5800 
1954.96 -2301.11 5800 3276.57 -2301.06 5800 1955.19 -2288.11 5800 
3276.94 -2298.58 5800 3278.42 -2288.06 5800 1955.41 -2275.11 5800 
3280.22 -2275.06 5800 1955.65 -2262.11 5800 3281.97 -2262.06 5800 
1955.93 -2249.11 5800 3283.68 -2249.06 5800 1956.21 -2236.1 5800 
3285.35 -2236.06 5800 1956.49 -2223.1 5800 3286.99 -2223.06 5800 
1956.79 -2210.1 5800 3288.58 -2210.06 5800 1957.11 -2197.1 5800 
3290.14 -2197.06 5800 1957.43 -2184.1 5800 3291.67 -2184.05 5800 
1957.76 -2171.1 5800 3293.16 -2171.05 5800 1958.08 -2158.1 5800 
3294.62 -2158.05 5800 1958.4 -2145.1 5800 3296.05 -2145.05 5800 
1958.72 -2132.1 5800 3297.45 -2132.05 5800 1959.05 -2119.1 5800 
3298.81 -2119.05 5800 1959.37 -2106.09 5800 3300.15 -2106.05 5800 
1959.69 -2093.09 5800 3301.47 -2093.05 5800 1960.01 -2080.09 5800 
3302.75 -2080.05 5800 1960.34 -2067.09 5800 3304.01 -2067.04 5800 
1960.66 -2054.09 5800 3305.25 -2054.04 5800 1958.56 -2041.09 5800 
3305.96 -2046.45 5800 3306.36 -2041.04 5800 1955.35 -2028.09 5800 
3307.33 -2028.04 5800 1952.14 -2015.09 5800 3308.3 -2015.04 5800 
1948.94 -2002.09 5800 3309.27 -2002.04 5800 1945.73 -1989.09 5800 
3310.24 -1989.04 5800 1942.52 -1976.08 5800 1942.91 -1977.67 5800 
3311.2 -1976.04 5800 1939.32 -1963.08 5800 3312.17 -1963.04 5800 
1936.11 -1950.08 5800 3313.08 -1950.04 5800 1932.9 -1937.08 5800 
3313.82 -1937.03 5800 1929.7 -1924.08 5800 3314.48 -1924.03 5800 
1926.49 -1911.08 5800 3315.15 -1911.03 5800 1923.28 -1898.08 5800 
3315.82 -1898.03 5800 1920.08 -1885.08 5800 3316.49 -1885.03 5800 
1916.87 -1872.08 5800 3317.16 -1872.03 5800 1913.67 -1859.08 5800 
1913.92 -1860.12 5800 3317.82 -1859.03 5800 1910.46 -1846.08 5800 
3318.49 -1846.03 5800 1907.73 -1833.08 5800 3319.16 -1833.03 5800 
1906.85 -1820.07 5800 3319.83 -1820.03 5800 1906.31 -1807.07 5800 
3320.5 -1807.02 5800 1908.19 -1794.07 5800 3321.16 -1794.02 5800 
1911.49 -1781.07 5800 3321.83 -1781.02 5800 1913.93 -1771.46 5800 
1914.79 -1768.07 5800 3322.5 -1768.02 5800 1918.09 -1755.07 5800 
3323.17 -1755.02 5800 1921.4 -1742.07 5800 3323.84 -1742.02 5800 
1924.7 -1729.07 5800 3324.5 -1729.02 5800 1928 -1716.07 5800 
3325.17 -1716.02 5800 1931.3 -1703.06 5800 3325.84 -1703.02 5800 
1934.6 -1690.06 5800 3326.51 -1690.02 5800 1937.91 -1677.06 5800 
3327.18 -1677.01 5800 1941.21 -1664.06 5800 3327.84 -1664.01 5800 
1942.94 -1657.25 5800 1944.51 -1651.06 5800 3328.51 -1651.01 5800 
1947.81 -1638.06 5800 3329.18 -1638.01 5800 1951.12 -1625.06 5800 
3324.5 -1625.01 5800 1954.42 -1612.06 5800 3319.16 -1612.01 5800 
1957.72 -1599.06 5800 3312.97 -1599.01 5800 1961.02 -1586.05 5800 
3306.77 -1586.01 5800 1964.32 -1573.05 5800 3305.99 -1583.97 5800 
3302.49 -1573.01 5800 1967.65 -1560.05 5800 3301.07 -1560.01 5800 
1970.94 -1547.05 5800 3299.97 -1547.01 5800 1971.95 -1543.08 5800 
1974.32 -1534.05 5800 3299.03 -1534 5800 1977.82 -1521.05 5800 
3298.21 -1521 5800 1980.82 -1508.05 5800 3297.49 -1508 5800 
1981.98 -1495.05 5800 3296.86 -1495 5800 1983.27 -1482.05 5800 
3296.29 -1482 5800 1984.56 -1469.04 5800 3295.79 -1469 5800 
1985.85 -1456.04 5800 3295.34 -1456 5800 1987.14 -1443.04 5800 
3295.71 -1443 5800 1988.43 -1430.04 5800 3296.19 -1430 5800 
1989.72 -1417.04 5800 3296.66 -1417 5800 1991.01 -1404.04 5800 
3297.14 -1403.99 5800 1992.3 -1391.04 5800 3297.61 -1390.99 5800 
1993.59 -1378.04 5800 3298.09 -1377.99 5800 1994.88 -1365.04 5800 
3298.56 -1364.99 5800 1996.17 -1352.04 5800 3299.04 -1351.99 5800 
1997.2 -1339.03 5800 3299.51 -1338.99 5800 1997.93 -1326.03 5800 
3299.99 -1325.99 5800 1998.66 -1313.03 5800 3300.46 -1312.99 5800 
1999.38 -1300.03 5800 3300.94 -1299.99 5800 2000.11 -1287.03 5800 
3301.41 -1286.99 5800 2000.83 -1274.03 5800 3301.89 -1273.98 5800 
2000.97 -1271.57 5800 2001.56 -1261.03 5800 3302.36 -1260.98 5800 
2002.29 -1248.03 5800 3302.84 -1247.98 5800 2003.01 -1235.03 5800 
3303.31 -1234.98 5800 2003.74 -1222.02 5800 3303.78 -1221.98 5800 
2004.46 -1209.02 5800 3304.26 -1208.98 5800 2005.19 -1196.02 5800 
3304.76 -1195.98 5800 2005.92 -1183.02 5800 3305.35 -1182.98 5800 
2006.64 -1170.02 5800 3305.93 -1169.98 5800 2007.37 -1157.02 5800 
3306.02 -1168 5800 3306.53 -1156.97 5800 2008.09 -1144.02 5800 
3307.13 -1143.97 5800 2008.36 -1131.02 5800 3307.73 -1130.97 5800 
2008.82 -1118.02 5800 3308.32 -1117.97 5800 2009.49 -1105.02 5800 
3308.78 -1104.97 5800 2011 -1092.01 5800 3308.91 -1091.97 5800 
2014.28 -1079.01 5800 3309.03 -1078.97 5800 2017.53 -1066.01 5800 
3309.14 -1065.97 5800 2020.24 -1053.01 5800 3309.26 -1052.97 5800 
2023.06 -1040.01 5800 3309.38 -1039.97 5800 2026.02 -1027.01 5800 
3309.5 -1026.96 5800 2029.11 -1014.01 5800 2559.37 -1013.99 5800 
2581.01 -1021.13 5800 2610.01 -1018.13 5800 2639.01 -1015.49 5800 
2655.58 -1013.99 5800 3309.71 -1013.96 5800 2029.99 -1010.4 5800 
2031.42 -1001.01 5800 2534.95 -1000.99 5800 2552.01 -1011.92 5800 
2668.01 -1012.85 5800 2697.02 -1010.22 5800 2726.02 -1007.58 5800 
2755.02 -1005.01 5800 2758.28 -1000.98 5800 3309.72 -1000.96 5800 
2033.4 -988.006 5800 2514.66 -987.989 5800 2523.01 -993.338 5800 
2767.91 -987.981 5800 3309.61 -987.962 5800 2035.39 -975.005 5800 
2494.38 -974.989 5800 2775.61 -974.979 5800 3309.49 -974.961 5800 
2037.37 -962.004 5800 2473.75 -961.989 5800 2494.01 -974.753 5800 
2781.75 -961.978 5800 3307.05 -961.96 5800 2039.22 -949.003 5800 
2452.01 -948.988 5800 2465.01 -956.711 5800 2784.02 -956.889 5800 
2787.91 -948.977 5800 3306.04 -957.302 5800 3304.12 -948.959 5800 
2040.95 -936.002 5800 2430.14 -935.988 5800 2436.01 -939.48 5800 
2794.67 -935.976 5800 3301.62 -935.958 5800 2042.74 -923.001 5800 
2408.26 -922.988 5800 2801.22 -922.974 5800 3298.91 -922.957 5800 
2044.57 -910 5800 2397.99 -909.987 5800 2407.01 -922.249 5800 
2807.47 -909.973 5800 3296.2 -909.956 5800 2046.46 -896.998 5800 
[...]
POINT_DATA 6404
SCALARS Pressure double
LOOKUP_TABLE default
3.0932710339 3.0932710339 3.0932710339 3.0932710339 3.0932710339 3.0932710339 3.0932710339 3.0932710339 3.0932710339 
3.0932710339 3.0932710339 3.0932710339 3.0932710339 3.0932710339 3.0932710339 3.0932710339 3.0932710339 3.0932710339 
3.0932710339 3.0932710339 3.0932710339 3.0932710339 3.0932710339 3.0932710339 3.0932710339 3.0932710339 3.0932710339 
3.0932710339 3.0932710339 3.0932710339 3.0932710339 3.0932710339 3.0932710339 3.0932710339 3.0932710339 3.0932710339 
3.0932710339 3.0932710339 3.0932710339 3.0932710339 3.0932710339 3.0932710339 3.0932710339 3.0932710339 3.0932710339 
3.0932710339 3.0932710339 3.0932710339 3.0932710339 3.0932710339 3.0932710339 3.0932710339 3.0932710339 3.0932710339 
3.0932710339 3.0932710339 3.0932710339 3.0932710339 3.0932710339 3.0932710339 3.0932710339 3.0932710339 3.0932710339 
3.0932710339 3.0932710339 3.0932710339 3.0932710339 3.0932710339 3.0932710339 3.0932710339 3.0932710339 3.0932710339 
3.0932710339 3.0932710339 3.0932710339 3.0932710339 3.0932710339 3.0932710339 3.0932710339 3.0932710339 3.0932710339 
3.0932710339 3.0932710339 3.0932710339 3.0932710339 3.0932710339 3.0932710339 3.0932710339 3.0932710339 3.0932710339 
3.0932710339 3.0932710339 3.0932710339 3.0932710339 3.0932710339 3.0932710339 3.0932710339 3.0932710339 3.0932710339 
3.0932710339 3.0932710339 3.0932710339 3.0932710339 3.0932710339 3.0932710339 3.0932710339 3.0932710339 3.0932710339 
3.0932710339 3.0932710339 3.0932710339 3.0932710339 3.0932710339 3.0932710339 3.0932710339 3.0932710339 3.0932710339 
3.0932710339 3.0932710339 3.0932710339 3.0932710339 3.0932710339 3.0932710339 3.0932710339 3.0932710339 3.0932710339 
3.0932710339 3.0932710339 3.0932710339 3.0932710339 3.0932710339 3.0932710339 3.0932710339 3.0932710339 3.0932710339 
3.0932710339 3.0932710339 3.0932710339 3.0932710339 3.0932710339 3.0932710339 3.0932710339 3.0932710339 3.0932710339 
3.0932710339 3.0932710339 3.0932710339 3.0932710339 3.0932710339 3.0932710339 3.0932710339 3.0932710339 3.0932710339 
3.0932710339 3.0932710339 3.0932710339 3.0932710339 3.0932710339 3.0932710339 3.0932710339 3.0932710339 3.0932710339 
3.0932710339 3.0932710339 3.0932710339 3.0932710339 3.0932710339 3.0932710339 3.0932710339 3.0932710339 3.0932710339 
3.0932710339 3.0932710339 3.0932710339 3.0932710339 3.0932710339 3.0932710339 3.0932710339 3.0932710339 3.0932710339 
3.0932710339 3.0932710339 3.0932710339 3.0932710339 3.0932710339 3.0932710339 3.0932710339 3.0932710339 3.0932710339 
3.0932710339 3.0932710339 3.0932710339 3.0932710339 3.0932710339 3.0932710339 3.0932710339 3.0932710339 3.0932710339 
3.0932710339 3.0932710339 3.0932710339 3.0932710339 3.0932710339 3.0932710339 3.0932710339 3.0932710339 3.0932710339 
3.0932710339 3.0932710339 3.0932710339 3.0932710339 3.0932710339 3.0932710339 3.0932710339 3.0932710339 3.0932710339 
3.0932710339 3.0932710339 3.0932710339 3.0932710339 3.0932710339 3.0932710339 3.0932710339 3.0932710339 3.0932710339 
3.0932710339 3.0932710339 3.0932710339 3.0932710339 3.0932710339 3.0932710339 3.0932710339 3.0932710339 3.0932710339 
3.0932710339 3.0932710339 3.0932710339 3.0932710339 3.0932710339 3.0932710339 3.0932710339 3.0932710339 3.0932710339 
3.0932710339 3.0932710339 3.0932710339 3.0932710339 3.0932710339 3.0932710339 3.0932710339 3.0932710339 3.0932710339 
3.0932710339 3.0932710339 3.0932710339 3.0932710339 3.0932710339 3.0932710339 3.0932710339 3.0932710339 3.0932710339 
3.0932710339 3.0932710339 3.0932710339 3.0932710339 3.0932710339 3.0932710339 3.0932710339 3.0932710339 3.0932710339 
3.0932710339 3.0932710339 3.0932710339 3.0932710339 3.0932710339 3.0932710339 3.0932710339 3.0932710339 3.0932710339 
3.0932710339 3.0932710339 3.0932710339 3.0932710339 3.0932710339 3.0932710339 3.0932710339 3.0932710339 3.0932710339 
3.0932710339 3.0932710339 3.0932710339 3.0932710339 3.0932710339 3.0932710339 3.0932710339 3.0932710339 3.0932710339 
3.0932710339 3.0932710339 3.0932710339 3.0932710339 3.0932710339 3.0932710339 3.0932710339 3.0932710339 3.0932710339 
3.0932710339 3.0932710339 3.0932710339 3.0932710339 3.0932710339 3.0932710339 3.0932710339 3.0932710339 3.0932710339 
3.0932710339 3.0932710339 3.0932710339 3.0932710339 3.0932710339 3.0932710339 3.0932710339 3.0932710339 3.0932710339 
3.0932710339 3.0932710339 3.0932710339 3.0932710339 3.0932710339 3.0932710339 3.0932710339 3.0932710339 3.0932710339 
3.0932710339 3.0932710339 3.0932710339 3.0932710339 3.0932710339 3.0932710339 3.0932710339 3.0932710339 3.0932710339 
3.0932710339 3.0932710339 3.0932710339 3.0932710339 3.0932710339 3.0932710339 3.0932710339 3.0932710339 3.0932710339 
3.0932710339 3.0932710339 3.0932710339 3.0932710339 3.0932710339 3.0932710339 3.0932710339 3.0932710339 3.0932710339 
3.0932710339 3.0932710339 3.0932710339 3.0932710339 3.0932710339 3.0932710339 3.0932710339 3.0932710339 3.0932710339 
3.0932710339 3.0932710339 3.0932710339 3.0932710339 3.0932710339 3.0932710339 3.0932710339 3.0932710339 3.0932710339 
3.0932710339 3.0932710339 3.0932710339 3.0932710339 3.0932710339 3.0932710339 3.0932710339 3.0932710339 3.0932710339 
3.0932710339 3.0932710339 3.0932710339 3.0932710339 3.0932710339 3.0932710339 3.0932710339 3.0932710339 3.1078652246 
3.1078652246 3.1078652246 3.1078652246 3.1078652246 3.0932710339 3.0932710339 3.0932710339 3.1078652246 3.1078652246 
3.1078652246 3.1078652246 3.1078652246 3.1078652246 3.1078652246 3.0932710339 3.0932710339 3.1078652246 3.1078652246 
3.1078652246 3.0932710339 3.0932710339 3.1078652246 3.1078652246 3.0932710339 3.0932710339 3.1078652246 3.1078652246 
3.1078652246 3.0932710339 3.0932710339 3.1078652246 3.1078652246 3.1078652246 3.1078652246 3.0932710339 3.0932710339 
3.0932710339 3.1078652246 3.1078652246 3.1078652246 3.0932710339 3.0932710339 3.1078652246 3.1078652246 3.0932710339 
3.0932710339 3.1078652246 3.1078652246 3.1078652246 3.0932710339 3.0932710339 3.1078652246 3.1078652246 3.1078652246 
3.0932710339 3.0932710339 3.1078652246 3.1078652246 3.0932710339 3.0932710339 3.1078652246 3.1078652246 3.0932710339 
3.0932710339 3.1078652246 3.1078652246 3.1078652246 3.0932710339 3.0932710339 3.1078652246 3.1078652246 3.0932710339 
3.0932710339 3.1078652246 3.1078652246 3.1078652246 3.0932710339 3.0932710339 3.1078652246 3.1078652246 3.0932710339 
3.0932710339 3.0932710339 3.1078652246 3.1078652246 3.1078652246 3.0932710339 3.0932710339 3.0932710339 3.1078652246 
3.1078652246 3.1078652246 3.0932710339 3.0932710339 3.1078652246 3.1078652246 3.0932710339 3.0932710339 3.1078652246 
3.1078652246 3.1078652246 3.0932710339 3.0932710339 3.1078652246 3.1078652246 3.1078652246 3.0932710339 3.0932710339 
3.1078652246 3.1078652246 3.0932710339 3.0932710339 3.1078652246 3.1078652246 3.0932710339 3.0932710339 3.1078652246 
3.1078652246 3.0932710339 3.0932710339 3.1078652246 3.1078652246 3.0932710339 3.0932710339 3.1078652246 3.1078652246 
3.1078652246 3.0932710339 3.0932710339 3.1078652246 3.1078652246 3.1078652246 3.0932710339 3.0932710339 3.1078652246 
3.1224594153 3.1224594153 3.1224594153 3.1078652246 3.0932710339 3.0932710339 3.1078652246 3.1224594153 3.1224594153 
3.1224594153 3.1224594153 3.1078652246 3.0932710339 3.0932710339 3.1078652246 3.1224594153 3.1224594153 3.1224594153 
3.1078652246 3.0932710339 3.0932710339 3.1078652246 3.1224594153 3.1224594153 3.1224594153 3.1224594153 3.1078652246 
3.0932710339 3.0932710339 3.1078652246 3.1224594153 3.1224594153 3.1224594153 3.1224594153 3.1078652246 3.1078652246 
3.0932710339 3.0932710339 3.0932710339 3.1078652246 3.1224594153 3.1224594153 3.1078652246 3.0932710339 3.0932710339 
3.1078652246 3.1224594153 3.1224594153 3.1224594153 3.1224594153 3.1078652246 3.0932710339 3.0932710339 3.1078652246 
3.1224594153 3.1224594153 3.1224594153 3.1078652246 3.0932710339 3.0932710339 3.1078652246 3.1078652246 3.1224594153 
3.1224594153 3.1078652246 3.0932710339 3.0932710339 3.1078652246 3.1224594153 3.1224594153 3.1224594153 3.1078652246 
3.1078652246 3.0932710339 3.0932710339 3.1078652246 3.1224594153 3.1224594153 3.1078652246 3.0932710339 3.0932710339 
3.1078652246 3.1224594153 3.1224594153 3.1224594153 3.1224594153 3.1078652246 3.0932710339 3.0932710339 3.1078652246 
3.1224594153 3.1224594153 3.1078652246 3.0932710339 3.0932710339 3.1078652246 3.1224594153 3.1224594153 3.1078652246 
3.0932710339 3.0786768432 3.0786768432 3.0786768432 3.0786768432 3.0786768432 3.0932710339 3.1078652246 3.1078652246 
3.1224594153 3.1224594153 3.1078652246 3.1078652246 3.0932710339 3.0786768432 3.0786768432 3.0786768432 3.0786768432 
3.0786768432 3.0786768432 3.0786768432 3.0786768432 3.0786768432 3.0786768432 3.0786768432 3.0786768432 3.0932710339 
3.1078652246 3.1224594153 3.1224594153 3.1224594153 3.1224594153 3.1078652246 3.0932710339 3.0786768432 3.0786768432 
3.0786768432 3.0786768432 3.0786768432 3.0786768432 3.0786768432 3.0786768432 3.0932710339 3.1078652246 3.1224594153 
3.137053606 3.137053606 3.137053606 3.137053606 3.1224594153 3.1078652246 3.0932710339 3.0786768432 3.0786768432 
3.0786768432 3.0786768432 3.0786768432 3.0786768432 3.0932710339 3.0932710339 3.1078652246 3.1224594153 3.137053606 
3.137053606 3.137053606 3.137053606 3.1224594153 3.1078652246 3.0932710339 3.0786768432 3.0786768432 3.0786768432 
3.0786768432 3.0786768432 3.0786768432 3.0932710339 3.1078652246 3.1224594153 3.137053606 3.137053606 3.137053606 
3.137053606 3.1224594153 3.1224594153 3.1078652246 3.0932710339 3.0786768432 3.0786768432 3.0786768432 3.0786768432 
3.0786768432 3.0786768432 3.0932710339 3.1078652246 3.1224594153 3.1224594153 3.137053606 3.137053606 3.1224594153 
3.1078652246 3.1078652246 3.0932710339 3.0786768432 3.0786768432 3.0786768432 3.0786768432 3.0786768432 3.0932710339 
3.1078652246 3.1224594153 3.137053606 3.137053606 3.137053606 3.137053606 3.1224594153 3.1078652246 3.0932710339 
3.0786768432 3.0786768432 3.0786768432 3.0786768432 3.0786768432 3.0786768432 3.0932710339 3.1078652246 3.1224594153 
3.137053606 3.137053606 3.1224594153 3.1078652246 3.0932710339 3.0786768432 3.0786768432 3.0786768432 3.0786768432 
3.0786768432 3.0786768432 3.0932710339 3.1078652246 3.1224594153 3.137053606 3.137053606 3.137053606 3.1224594153 
3.1224594153 3.1078652246 3.0932710339 3.0786768432 3.0786768432 3.0786768432 3.0786768432 3.0786768432 3.0932710339 
3.1078652246 3.1224594153 3.137053606 3.137053606 3.137053606 3.1224594153 3.1078652246 3.0932710339 3.0786768432 
3.0786768432 3.0786768432 3.0786768432 3.0786768432 3.0786768432 3.0786768432 3.0932710339 3.1078652246 3.1224594153 
3.137053606 3.137053606 3.1224594153 3.1078652246 3.0932710339 3.0932710339 3.0786768432 3.0786768432 3.0786768432 
3.0786768432 3.0786768432 3.0932710339 3.1078652246 3.1224594153 3.1224594153 3.137053606 3.137053606 3.137053606 
3.1224594153 3.1078652246 3.0932710339 3.0786768432 3.0786768432 3.0786768432 3.0786768432 3.0786768432 3.0932710339 
3.1078652246 3.1224594153 3.137053606 3.137053606 3.1224594153 3.1224594153 3.1078652246 3.0932710339 3.0786768432 
3.0786768432 3.0786768432 3.0786768432 3.0786768432 3.0932710339 3.1078652246 3.1224594153 3.137053606 3.1516477967 
3.1516477967 3.1516477967 3.1516477967 3.137053606 3.137053606 3.1224594153 3.1078652246 3.1078652246 3.0932710339 
3.0786768432 3.0786768432 3.0786768432 3.0786768432 3.0786768432 3.0932710339 3.1078652246 3.1224594153 3.137053606 
3.137053606 3.1516477967 3.1516477967 3.1516477967 3.1516477967 3.137053606 3.1224594153 3.1078652246 3.0932710339 
3.0786768432 3.0786768432 3.0786768432 3.0786768432 3.0786768432 3.0932710339 3.1078652246 3.1078652246 3.1224594153 
3.137053606 3.1516477967 3.1516477967 3.1516477967 3.137053606 3.1224594153 3.1078652246 3.0932710339 3.0786768432 
3.0786768432 3.0786768432 3.0786768432 3.0786768432 3.0932710339 3.1078652246 3.1224594153 3.137053606 3.1516477967 
3.1516477967 3.1516477967 3.137053606 3.1224594153 3.1078652246 3.0932710339 3.0786768432 3.0786768432 3.0786768432 
3.0786768432 3.0786768432 3.0786768432 3.0932710339 3.1078652246 3.1224594153 3.1224594153 3.137053606 3.1516477967 
3.1516477967 3.1516477967 3.137053606 3.1224594153 3.1078652246 3.0932710339 3.0932710339 3.0786768432 3.0786768432 
3.0786768432 3.0786768432 3.0932710339 3.1078652246 3.1224594153 3.137053606 3.137053606 3.1516477967 3.1516477967 
3.1516477967 3.137053606 3.137053606 3.1224594153 3.1224594153 3.1078652246 3.0932710339 3.0786768432 3.0786768432 
3.0786768432 3.0786768432 3.0932710339 3.1078652246 3.1224594153 3.137053606 3.1516477967 3.1516477967 3.137053606 
3.1224594153 3.1078652246 3.0932710339 3.0786768432 3.0786768432 3.0786768432 3.0786768432 3.0786768432 3.0932710339 
3.1078652246 3.1224594153 3.137053606 3.1516477967 3.1516477967 3.1516477967 3.137053606 3.1224594153 3.1078652246 
3.0932710339 3.0786768432 3.0786768432 3.0786768432 3.0640826525 3.0640826525 3.0640826525 3.0640826525 3.0640826525 
3.0640826525 3.0786768432 3.0932710339 3.1078652246 3.1224594153 3.137053606 3.137053606 3.1516477967 3.1516477967 
3.1516477967 3.137053606 3.1224594153 3.1078652246 3.0932710339 3.0786768432 3.0786768432 3.0786768432 3.0786768432 
3.0786768432 3.0640826525 3.0640826525 3.0640826525 3.0640826525 3.0640826525 3.0786768432 3.0932710339 3.1078652246 
3.1224594153 3.1224594153 3.137053606 3.1516477967 3.1516477967 3.137053606 3.1224594153 3.1078652246 3.0932710339 
3.0786768432 3.0786768432 3.0786768432 3.0786768432 3.0640826525 3.0640826525 3.0640826525 3.0786768432 3.0932710339 
3.1078652246 3.1224594153 3.137053606 3.1516477967 3.1516477967 3.1662419875 3.1662419875 3.1662419875 3.1662419875 
3.1662419875 3.1516477967 3.137053606 3.1224594153 3.1078652246 3.0932710339 3.0786768432 3.0786768432 3.0786768432 
3.0640826525 3.0640826525 3.0640826525 3.0786768432 3.0932710339 3.1078652246 3.1224594153 3.137053606 3.1516477967 
3.1662419875 3.1662419875 3.1662419875 3.1662419875 3.1516477967 3.137053606 3.137053606 3.1224594153 3.1078652246 
3.0932710339 3.0786768432 3.0786768432 3.0786768432 3.0640826525 3.0640826525 3.0640826525 3.0786768432 3.0932710339 
3.1078652246 3.1224594153 3.137053606 3.137053606 3.1516477967 3.1516477967 3.1662419875 3.1662419875 3.1662419875 
3.1516477967 3.137053606 3.1224594153 3.1078652246 3.0932710339 3.0786768432 3.0786768432 3.0786768432 3.0786768432 
3.0640826525 3.0640826525 3.0786768432 3.0932710339 3.1078652246 3.1224594153 3.137053606 3.1516477967 3.1662419875 
3.1662419875 3.1662419875 3.1516477967 3.137053606 3.1224594153 3.1078652246 3.0932710339 3.0786768432 3.0786768432 
3.0786768432 3.0786768432 3.0640826525 3.0640826525 3.0786768432 3.0932710339 3.1078652246 3.1078652246 3.1224594153 
3.137053606 3.1516477967 3.1516477967 3.1662419875 3.1662419875 3.1662419875 3.1516477967 3.137053606 3.1224594153 
3.1078652246 3.0932710339 3.0786768432 3.0786768432 3.0786768432 3.0640826525 3.0494884618 3.0494884618 3.0494884618 
3.0494884618 3.0494884618 3.0640826525 3.0786768432 3.0786768432 3.0932710339 3.1078652246 3.1224594153 3.1224594153 
3.137053606 3.1516477967 3.1662419875 3.1662419875 3.1516477967 3.137053606 3.1224594153 3.1078652246 3.0932710339 
3.0786768432 3.0786768432 3.0786768432 3.0786768432 3.0786768432 3.0786768432 3.0786768432 3.0786768432 3.0786768432 
3.0786768432 3.0640826525 3.0640826525 3.0494884618 3.0494884618 3.0494884618 3.0640826525 3.0640826525 3.0786768432 
3.0932710339 3.1078652246 3.1224594153 3.137053606 3.137053606 3.1516477967 3.1662419875 3.1662419875 3.1662419875 
3.1516477967 3.137053606 3.137053606 3.1224594153 3.1078652246 3.0932710339 3.0786768432 3.0640826525 3.0640826525 
3.0640826525 3.0786768432 3.0786768432 3.0640826525 3.0494884618 3.0494884618 3.0494884618 3.0640826525 3.0786768432 
3.0932710339 3.1078652246 3.1224594153 3.137053606 3.1516477967 3.1516477967 3.1662419875 3.1662419875 3.1516477967 
3.137053606 3.1224594153 3.1078652246 3.0932710339 3.0932710339 3.0786768432 3.0640826525 3.0640826525 3.0640826525 
3.0640826525 3.0786768432 3.0786768432 3.0786768432 3.0640826525 3.0494884618 3.0494884618 3.0494884618 3.0640826525 
3.0786768432 3.0932710339 3.1078652246 3.1224594153 3.137053606 3.1516477967 3.1662419875 3.1662419875 3.1662419875 
3.1516477967 3.137053606 3.1224594153 3.1224594153 3.1078652246 3.1078652246 3.0932710339 3.0786768432 3.0786768432 
3.0640826525 3.0640826525 3.0640826525 3.0786768432 3.0786768432 3.0786768432 3.0640826525 3.0494884618 3.0348942711 
3.0348942711 3.0348942711 3.0348942711 3.0494884618 3.0640826525 3.0786768432 3.0932710339 3.1078652246 3.1224594153 
3.137053606 3.1516477967 3.1662419875 2.9619233175 2.9619233175 2.9765175082 2.9765175082 2.991111699 2.991111699 
3.0057058897 3.0057058897 3.0203000804 3.0203000804 3.0348942711 3.0348942711 3.0494884618 3.0494884618 3.0640826525 
3.0640826525 3.0786768432 3.0786768432 3.0932710339 3.0932710339 3.1078652246 3.1078652246 3.1224594153 3.1224594153 
3.137053606 3.137053606 3.1516477967 3.1516477967 3.1662419875 3.1662419875 2.9619233175 2.9765175082 2.991111699 
3.0057058897 3.0203000804 3.0348942711 3.0494884618 3.0640826525 3.0786768432 3.0932710339 3.1078652246 3.1224594153 
3.137053606 3.1516477967 3.1662419875 2.9619233175 2.9765175082 2.991111699 3.0057058897 3.0203000804 3.0348942711 
3.0494884618 3.0640826525 3.0786768432 3.0932710339 3.1078652246 3.1224594153 3.137053606 3.1516477967 3.1662419875 
2.9619233175 2.9765175082 2.991111699 3.0057058897 3.0203000804 3.0348942711 3.0494884618 3.0640826525 3.0786768432 
3.0932710339 3.1078652246 3.1224594153 3.137053606 3.1516477967 3.1662419875 2.9619233175 2.9765175082 2.991111699 
3.0057058897 3.0203000804 3.0348942711 3.0494884618 3.0640826525 3.0786768432 3.0932710339 3.1078652246 3.1224594153 
3.137053606 3.1516477967 3.1662419875 2.9619233175 2.9765175082 2.991111699 3.0057058897 3.0203000804 3.0348942711 
3.0494884618 3.0640826525 3.0786768432 3.0932710339 3.1078652246 3.1224594153 3.137053606 3.1516477967 3.1662419875 
2.9619233175 2.9765175082 2.991111699 3.0057058897 3.0203000804 3.0348942711 3.0494884618 3.0640826525 3.0786768432 
3.0932710339 3.1078652246 3.1224594153 3.137053606 3.1516477967 3.1662419875 2.9619233175 2.9765175082 2.991111699 
3.0057058897 3.0203000804 3.0348942711 3.0494884618 3.0640826525 3.0786768432 3.0932710339 3.1078652246 3.1224594153 
3.137053606 3.1516477967 3.1662419875 2.9619233175 2.9765175082 2.991111699 3.0057058897 3.0203000804 3.0348942711 
3.0494884618 3.0640826525 3.0786768432 3.0932710339 3.1078652246 3.1224594153 3.137053606 3.1516477967 3.1662419875 
2.9619233175 2.9765175082 2.991111699 3.0057058897 3.0203000804 3.0348942711 3.0494884618 3.0640826525 3.0786768432 
3.0932710339 3.1078652246 3.1224594153 3.137053606 3.1516477967 2.9619233175 2.9765175082 2.991111699 3.0057058897 
3.0203000804 3.0348942711 3.0494884618 3.0640826525 3.0786768432 3.0932710339 3.1078652246 3.1224594153 3.137053606 
3.1516477967 3.1516477967 3.137053606 3.1224594153 3.1078652246 3.0932710339 3.0786768432 3.0640826525 3.0640826525 
3.0640826525 3.0640826525 3.0786768432 3.0786768432 3.0640826525 3.0494884618 3.0348942711 3.0348942711 3.0348942711 
3.0494884618 3.0494884618 3.0640826525 3.0786768432 3.0786768432 3.0932710339 3.1078652246 3.1224594153 3.1224594153 
3.137053606 3.137053606 2.9619233175 2.9619233175 2.9765175082 2.9765175082 2.991111699 2.991111699 3.0057058897 
3.0057058897 3.0203000804 3.0203000804 3.0348942711 3.0348942711 3.0494884618 3.0494884618 3.0640826525 3.0640826525 
3.0786768432 3.0786768432 3.0932710339 3.0932710339 3.1078652246 3.1078652246 3.1224594153 3.1224594153 3.137053606 
3.137053606 2.9619233175 2.9765175082 2.991111699 3.0057058897 3.0203000804 3.0348942711 3.0494884618 3.0640826525 
3.0786768432 3.0932710339 3.1078652246 3.1224594153 3.137053606 3.1516477967 2.9619233175 2.9765175082 2.991111699 
3.0057058897 3.0203000804 3.0348942711 3.0494884618 3.0640826525 3.0786768432 3.0932710339 3.1078652246 3.1224594153 