# vtk DataFile Version 4.2
vtk output
ASCII
DATASET POLYDATA
POINTS 7034 float
1517.9 -3451.16 0 1553.84 -3465.23 0 1581.62 -3451.16 0 
1506.89 -3434.16 0 1516.84 -3450.57 0 1590.84 -3446.49 0 
1615.2 -3434.16 0 1496.58 -3417.16 0 1627.84 -3427.75 0 
1648.77 -3417.16 0 1486.27 -3400.16 0 1664.84 -3409.02 0 
1682.35 -3400.15 0 1475.96 -3383.16 0 1479.84 -3389.55 0 
1701.85 -3390.28 0 1715.93 -3383.15 0 1465.66 -3366.16 0 
1738.85 -3371.55 0 1749.51 -3366.15 0 1455.35 -3349.16 0 
1775.85 -3352.81 0 1783.08 -3349.15 0 1445.04 -3332.16 0 
1812.85 -3334.08 0 1816.66 -3332.15 0 1434.73 -3315.16 0 
1442.84 -3328.53 0 1849.85 -3315.34 0 1850.24 -3315.15 0 
1424.43 -3298.16 0 1883.82 -3298.14 0 1414.12 -3281.15 0 
1886.86 -3296.6 0 1917.4 -3281.14 0 1403.81 -3264.15 0 
1405.85 -3267.51 0 1923.86 -3277.87 0 1950.97 -3264.14 0 
1393.5 -3247.15 0 1960.86 -3259.13 0 1984.55 -3247.14 0 
1383.2 -3230.15 0 1997.86 -3240.4 0 2018.13 -3230.14 0 
1372.89 -3213.15 0 2034.87 -3221.66 0 2051.71 -3213.13 0 
1362.58 -3196.15 0 1368.85 -3206.49 0 2071.87 -3202.93 0 
2085.28 -3196.13 0 1352.27 -3179.15 0 2108.87 -3184.19 0 
2118.86 -3179.13 0 1341.96 -3162.15 0 2145.87 -3165.45 0 
2152.44 -3162.13 0 1331.66 -3145.15 0 1331.85 -3145.47 0 
2182.87 -3146.72 0 2186.02 -3145.13 0 1321.35 -3128.15 0 
2219.6 -3128.12 0 1311.04 -3111.15 0 2219.88 -3128.04 0 
2256.88 -3122.67 0 2293.88 -3118.31 0 2330.88 -3113.94 0 
2333.74 -3111.12 0 1300.73 -3094.15 0 2346.29 -3094.12 0 
1290.43 -3077.15 0 1294.85 -3084.45 0 2353.59 -3077.12 0 
1280.12 -3060.15 0 2357.45 -3060.12 0 1269.81 -3043.14 0 
2361.32 -3043.12 0 1259.5 -3026.14 0 2365.18 -3026.11 0 
1249.2 -3009.14 0 1257.86 -3023.43 0 2367.89 -3014.21 0 
2369.05 -3009.11 0 1238.89 -2992.14 0 2372.91 -2992.11 0 
1228.58 -2975.14 0 2376.77 -2975.11 0 1218.27 -2958.14 0 
1220.86 -2962.4 0 2380.64 -2958.11 0 1207.97 -2941.14 0 
2384.5 -2941.11 0 1197.66 -2924.14 0 2388.36 -2924.11 0 
1163.72 -2907.14 0 1183.86 -2917.12 0 2392.23 -2907.11 0 
1118.61 -2890.14 0 1146.86 -2900.79 0 2396.09 -2890.11 0 
1073.49 -2873.14 0 1109.86 -2886.84 0 2399.96 -2873.1 0 
1028.38 -2856.14 0 1035.86 -2858.96 0 1072.86 -2872.9 0 
2403.82 -2856.1 0 990.46 -2839.14 0 998.86 -2844.42 0 
2404.9 -2851.36 0 2407.68 -2839.1 0 966.293 -2822.14 0 
2411.55 -2822.1 0 954.469 -2805.14 0 961.86 -2819.02 0 
2415.41 -2805.1 0 945.649 -2788.14 0 2419.27 -2788.1 0 
937.075 -2771.14 0 2423.14 -2771.1 0 928.737 -2754.14 0 
2427 -2754.1 0 921.436 -2737.14 0 924.863 -2746.08 0 
2430.87 -2737.1 0 914.919 -2720.14 0 2434.73 -2720.09 0 
908.403 -2703.13 0 2438.59 -2703.09 0 901.886 -2686.13 0 
2441.91 -2688.51 0 2442.46 -2686.09 0 895.37 -2669.13 0 
2446.32 -2669.09 0 888.853 -2652.13 0 2450.18 -2652.09 0 
882.336 -2635.13 0 887.868 -2649.56 0 2454.05 -2635.09 0 
875.82 -2618.13 0 2457.91 -2618.09 0 869.303 -2601.13 0 
2461.78 -2601.09 0 862.787 -2584.13 0 2465.64 -2584.09 0 
856.27 -2567.13 0 2469.5 -2567.08 0 849.754 -2550.13 0 
850.873 -2553.05 0 2473.37 -2550.08 0 843.237 -2533.13 0 
2477.23 -2533.08 0 836.721 -2516.13 0 2478.92 -2525.66 0 
2481.09 -2516.08 0 830.204 -2499.12 0 2484.96 -2499.08 0 
823.687 -2482.12 0 2488.82 -2482.08 0 817.171 -2465.12 0 
2492.69 -2465.08 0 810.654 -2448.12 0 813.878 -2456.53 0 
2496.55 -2448.08 0 804.138 -2431.12 0 2500.41 -2431.08 0 
797.621 -2414.12 0 2504.28 -2414.07 0 791.105 -2397.12 0 
2508.14 -2397.07 0 784.588 -2380.12 0 2512 -2380.07 0 
778.072 -2363.12 0 2515.87 -2363.07 0 771.555 -2346.12 0 
776.882 -2360.02 0 2515.93 -2362.8 0 2519.73 -2346.07 0 
765.038 -2329.12 0 2523.6 -2329.07 0 758.522 -2312.12 0 
2527.46 -2312.07 0 752.005 -2295.11 0 2531.32 -2295.07 0 
745.489 -2278.11 0 2535.19 -2278.07 0 738.972 -2261.11 0 
739.887 -2263.5 0 2539.05 -2261.06 0 732.456 -2244.11 0 
2542.91 -2244.06 0 725.939 -2227.11 0 2546.78 -2227.06 0 
719.423 -2210.11 0 2550.64 -2210.06 0 712.906 -2193.11 0 
2552.94 -2205.93 0 2559.34 -2193.06 0 706.587 -2176.11 0 
2571.74 -2176.06 0 703.919 -2159.11 0 2578.23 -2159.06 0 
701.606 -2142.11 0 702.892 -2151.57 0 2579.77 -2142.06 0 
699.295 -2125.11 0 2580.71 -2125.06 0 696.984 -2108.11 0 
2579.88 -2108.05 0 694.672 -2091.1 0 2578.86 -2091.05 0 
692.361 -2074.1 0 2577.85 -2074.05 0 690.049 -2057.1 0 
2576.84 -2057.05 0 687.738 -2040.1 0 2575.82 -2040.05 0 
685.426 -2023.1 0 2574.81 -2023.05 0 683.115 -2006.1 0 
2573.8 -2006.05 0 680.804 -1989.1 0 2572.78 -1989.05 0 
678.492 -1972.1 0 2571.77 -1972.05 0 676.181 -1955.1 0 
2570.76 -1955.05 0 673.869 -1938.1 0 2569.74 -1938.04 0 
671.558 -1921.09 0 2568.73 -1921.04 0 669.247 -1904.09 0 
2567.72 -1904.04 0 666.935 -1887.09 0 2566.7 -1887.04 0 
664.65 -1870.09 0 665.907 -1879.53 0 2565.69 -1870.04 0 
662.482 -1853.09 0 2564.68 -1853.04 0 660.429 -1836.09 0 
2563.66 -1836.04 0 658.481 -1819.09 0 2562.65 -1819.04 0 
656.63 -1802.09 0 2561.64 -1802.04 0 654.87 -1785.09 0 
2560.62 -1785.04 0 653.181 -1768.09 0 2559.61 -1768.03 0 
652.124 -1751.09 0 2558.6 -1751.03 0 651.067 -1734.08 0 
2557.58 -1734.03 0 650.01 -1717.08 0 2556.57 -1717.03 0 
648.928 -1700.08 0 2555.56 -1700.03 0 647.438 -1683.08 0 
2554.54 -1683.03 0 645.934 -1666.08 0 2553.53 -1666.03 0 
644.43 -1649.08 0 2552.97 -1656.66 0 2552.52 -1649.03 0 
642.152 -1632.08 0 2551.5 -1632.03 0 639.378 -1615.08 0 
2550.49 -1615.03 0 637.174 -1598.08 0 2549.48 -1598.03 0 
635.381 -1581.08 0 1409.33 -1581.05 0 1442.95 -1581.69 0 
1479.95 -1582.39 0 1516.95 -1583.1 0 1553.95 -1583.8 0 
1590.95 -1584.5 0 1605.34 -1581.05 0 2548.46 -1581.02 0 
-481.106 -1580.24 0 -514.116 -1564.11 0 -444.105 -1578.49 0 
-407.103 -1566.81 0 -398.521 -1564.1 0 633.895 -1564.07 0 
1282.09 -1564.06 0 1294.94 -1572.07 0 1331.94 -1579.59 0 
1368.94 -1580.29 0 1405.94 -1580.99 0 1627.95 -1573.04 0 
1637.5 -1564.05 0 2547.66 -1564.02 0 -518.106 -1562.16 0 
-548.899 -1547.11 0 -370.101 -1555.14 0 -344.639 -1547.1 0 
632.642 -1547.07 0 1253.8 -1547.06 0 1257.94 -1551.45 0 
1655.55 -1547.05 0 2548.52 -1547.02 0 -555.106 -1544.07 0 
-583.682 -1530.11 0 -333.1 -1543.46 0 -296.098 -1531.78 0 
-290.757 -1530.1 0 629.206 -1530.07 0 1238.54 -1530.06 0 
1664.95 -1538.18 0 1674.71 -1530.04 0 2549.61 -1530.02 0 
-592.106 -1525.99 0 -618.465 -1513.11 0 -259.096 -1520.11 0 
-236.875 -1513.1 0 624.092 -1513.07 0 628.927 -1528.81 0 
1221.84 -1513.06 0 1694.66 -1513.04 0 2550.69 -1513.02 0 
-629.106 -1507.91 0 -653.248 -1496.11 0 -222.095 -1508.43 0 
-185.093 -1496.76 0 -182.993 -1496.09 0 619.855 -1496.07 0 
1205.71 -1496.06 0 1220.94 -1512.21 0 1701.96 -1506.7 0 
1714.97 -1496.04 0 2551.78 -1496.02 0 -666.106 -1489.82 0 
-688.031 -1479.11 0 -148.091 -1485.08 0 -129.11 -1479.09 0 
616.376 -1479.07 0 1189.68 -1479.05 0 1735.72 -1479.04 0 
2552.86 -1479.02 0 -703.106 -1471.74 0 -718.464 -1462.11 0 
-111.09 -1473.4 0 -74.0883 -1468 0 -66.0621 -1462.09 0 
613.468 -1462.07 0 1173.65 -1462.05 0 1183.95 -1472.97 0 
1738.96 -1476.39 0 1756.48 -1462.04 0 2552.98 -1477.16 0 
2553.95 -1462.02 0 -736.181 -1445.1 0 -41.2684 -1445.09 0 
610.525 -1445.07 0 1157.62 -1445.05 0 1775.96 -1446.08 0 
1777.21 -1445.04 0 2555.03 -1445.02 0 -740.105 -1439.95 0 
-748.464 -1428.1 0 -37.0858 -1441.62 0 -27.4874 -1428.08 0 
606.788 -1428.07 0 1141.59 -1428.05 0 1146.95 -1433.74 0 
1793.78 -1428.04 0 2556.12 -1428.01 0 -760.465 -1411.1 0 
-15.4278 -1411.08 0 603.052 -1411.07 0 1125.56 -1411.05 0 
1805.38 -1411.03 0 2556.84 -1411.01 0 -772.466 -1394.1 0 
-3.50684 -1394.08 0 599.316 -1394.07 0 1109.49 -1394.05 0 
1109.95 -1394.5 0 1812.97 -1396.26 0 1813.82 -1394.03 0 
2557.22 -1394.01 0 -777.103 -1387.53 0 -784.467 -1377.1 0 
-0.0817275 -1389.45 0 8.69131 -1377.08 0 595.58 -1377.06 0 
1090.38 -1377.05 0 1820.35 -1377.03 0 2557.52 -1377.01 0 
-796.468 -1360.1 0 20.7509 -1360.08 0 591.842 -1360.06 0 
591.936 -1360.48 0 1067.51 -1360.05 0 1072.95 -1363.94 0 
1826.88 -1360.03 0 2554.43 -1360.01 0 -808.469 -1343.1 0 
32.8105 -1343.08 0 588.107 -1343.06 0 1043.74 -1343.05 0 
1833.4 -1343.03 0 2552.99 -1352.64 0 2550.94 -1343.01 0 
-814.101 -1335.12 0 -820.469 -1326.1 0 36.9223 -1337.28 0 
44.87 -1326.08 0 584.371 -1326.06 0 1019.96 -1326.05 0 
1035.95 -1337.48 0 1839.93 -1326.03 0 2547.79 -1326.01 0 
-832.47 -1309.1 0 56.9297 -1309.08 0 579.069 -1309.06 0 
997.318 -1309.05 0 998.95 -1311.03 0 1846.45 -1309.03 0 
2544.47 -1309.01 0 -844.471 -1292.1 0 68.9893 -1292.07 0 
569.818 -1292.06 0 983.242 -1292.05 0 1849.97 -1299.86 0 
1852.98 -1292.03 0 2541.14 -1292.01 0 -851.098 -1282.71 0 
-856.472 -1275.1 0 73.9264 -1285.11 0 81.0488 -1275.07 0 
563.557 -1275.06 0 969.098 -1275.05 0 1859.51 -1275.02 0 
2537.82 -1275.01 0 -868.473 -1258.1 0 93.1084 -1258.07 0 
558.607 -1258.06 0 956.28 -1258.05 0 961.952 -1266.49 0 
1866.03 -1258.02 0 2534.5 -1258.01 0 -880.474 -1241.1 0 
105.168 -1241.07 0 554.487 -1241.06 0 554.942 -1243.04 0 
944.86 -1241.05 0 1876.24 -1241.02 0 2531.18 -1241 0 
-888.096 -1230.3 0 -892.475 -1224.1 0 110.93 -1232.95 0 
117.228 -1224.07 0 550.582 -1224.06 0 933.44 -1224.05 0 
1886.81 -1224.02 0 2527.86 -1224 0 -904.476 -1207.1 0 
127.06 -1207.07 0 546.685 -1207.06 0 922.02 -1207.05 0 
924.954 -1211.41 0 1886.98 -1223.76 0 1897.39 -1207.02 0 
2524.53 -1207 0 -916.477 -1190.09 0 132.979 -1190.07 0 
542.795 -1190.06 0 911.107 -1190.05 0 1907.96 -1190.02 0 
2521.21 -1190 0 -925.094 -1177.89 0 -928.478 -1173.09 0 
137.134 -1173.07 0 538.914 -1173.05 0 901.122 -1173.04 0 
1918.53 -1173.02 0 2517.89 -1173 0 -940.479 -1156.09 0 
139.703 -1156.06 0 535.041 -1156.05 0 891.94 -1156.04 0 
1923.98 -1163.47 0 1927.27 -1156.02 0 2516 -1163.32 0 
2514.68 -1156 0 -952.826 -1139.09 0 141.491 -1139.06 0 
531.175 -1139.05 0 883.257 -1139.04 0 887.956 -1148.24 0 
1933.16 -1139.01 0 2513.29 -1139 0 -962.092 -1130.01 0 
-969.304 -1122.09 0 143.28 -1122.06 0 527.318 -1122.05 0 
874.574 -1122.04 0 1939.04 -1122.01 0 2512.79 -1122 0 
-988.714 -1105.09 0 145.068 -1105.06 0 523.468 -1105.05 0 
865.891 -1105.04 0 1944.93 -1105.01 0 2512.29 -1105 0 
-999.091 -1095.99 0 -1006.05 -1088.09 0 146.857 -1088.06 0 
519.626 -1088.05 0 857.208 -1088.04 0 1950.81 -1088.01 0 
[...]
POINT_DATA 7034
SCALARS Pressure double
LOOKUP_TABLE default
3.0932710339 3.0932710339 3.0932710339 3.0932710339 3.0932710339 3.0932710339 3.0932710339 3.0932710339 3.0932710339 
3.0932710339 3.0932710339 3.0932710339 3.0932710339 3.0932710339 3.0932710339 3.0932710339 3.0932710339 3.0932710339 
3.0932710339 3.0932710339 3.0932710339 3.0932710339 3.0932710339 3.0932710339 3.0932710339 3.0932710339 3.0932710339 
3.0932710339 3.0932710339 3.0932710339 3.0932710339 3.0932710339 3.0932710339 3.0932710339 3.0932710339 3.0932710339 
3.0932710339 3.0932710339 3.0932710339 3.0932710339 3.0932710339 3.0932710339 3.0932710339 3.0932710339 3.0932710339 
3.0932710339 3.0932710339 3.0932710339 3.0932710339 3.0932710339 3.0932710339 3.0932710339 3.0932710339 3.0932710339 
3.0932710339 3.0932710339 3.0932710339 3.0932710339 3.0932710339 3.0932710339 3.0932710339 3.0932710339 3.0932710339 
3.0932710339 3.0932710339 3.0932710339 3.0932710339 3.0932710339 3.0932710339 3.0932710339 3.0932710339 3.0932710339 
3.0932710339 3.0932710339 3.0932710339 3.0932710339 3.0932710339 3.0932710339 3.0932710339 3.0932710339 3.0932710339 
3.0932710339 3.0932710339 3.0932710339 3.0932710339 3.0932710339 3.0932710339 3.0932710339 3.0932710339 3.0932710339 
3.0932710339 3.0932710339 3.0932710339 3.0932710339 3.0932710339 3.0932710339 3.0932710339 3.0932710339 3.0932710339 
3.0932710339 3.0932710339 3.0932710339 3.0932710339 3.0932710339 3.0932710339 3.0932710339 3.0932710339 3.0932710339 
3.0932710339 3.0932710339 3.0932710339 3.0932710339 3.0932710339 3.0932710339 3.0932710339 3.0932710339 3.0932710339 
3.0932710339 3.0932710339 3.0932710339 3.0932710339 3.0932710339 3.0932710339 3.0932710339 3.0932710339 3.0932710339 
3.0932710339 3.0932710339 3.0932710339 3.0932710339 3.0932710339 3.0932710339 3.0932710339 3.0932710339 3.0932710339 
3.0932710339 3.0932710339 3.0932710339 3.0932710339 3.0932710339 3.0932710339 3.0932710339 3.0932710339 3.0932710339 
3.0932710339 3.0932710339 3.0932710339 3.0932710339 3.0932710339 3.0932710339 3.0932710339 3.0932710339 3.0932710339 
3.0932710339 3.0932710339 3.0932710339 3.0932710339 3.0932710339 3.0932710339 3.0932710339 3.0932710339 3.0932710339 
3.0932710339 3.0932710339 3.0932710339 3.0932710339 3.0932710339 3.0932710339 3.0932710339 3.0932710339 3.0932710339 
3.0932710339 3.0932710339 3.0932710339 3.0932710339 3.0932710339 3.0932710339 3.0932710339 3.0932710339 3.0932710339 
3.0932710339 3.0932710339 3.0932710339 3.0932710339 3.0932710339 3.0932710339 3.0932710339 3.0932710339 3.0932710339 
3.0932710339 3.0932710339 3.0932710339 3.0932710339 3.0932710339 3.0932710339 3.0932710339 3.0932710339 3.0932710339 
3.0932710339 3.0932710339 3.0932710339 3.0932710339 3.0932710339 3.0932710339 3.0932710339 3.0932710339 3.0932710339 
3.0932710339 3.0932710339 3.0932710339 3.0932710339 3.0932710339 3.0932710339 3.0932710339 3.0932710339 3.0932710339 
3.0932710339 3.0932710339 3.0932710339 3.0932710339 3.0932710339 3.0932710339 3.0932710339 3.0932710339 3.0932710339 
3.0932710339 3.0932710339 3.0932710339 3.0932710339 3.0932710339 3.0932710339 3.0932710339 3.0932710339 3.0932710339 
3.0932710339 3.0932710339 3.0932710339 3.0932710339 3.0932710339 3.0932710339 3.0932710339 3.0932710339 3.0932710339 
3.0932710339 3.0932710339 3.0932710339 3.0932710339 3.0932710339 3.0932710339 3.0932710339 3.0932710339 3.0932710339 
3.0932710339 3.0932710339 3.0932710339 3.0932710339 3.0932710339 3.0932710339 3.0932710339 3.0932710339 3.0932710339 
3.0932710339 3.0932710339 3.0932710339 3.0932710339 3.0932710339 3.0932710339 3.0932710339 3.0932710339 3.0932710339 
3.0932710339 3.0932710339 3.0932710339 3.0932710339 3.1078652246 3.1078652246 3.1078652246 3.1078652246 3.1078652246 
3.1078652246 3.1078652246 3.0932710339 3.0786768432 3.0786768432 3.0786768432 3.0786768432 3.0786768432 3.0932710339 
3.1078652246 3.1078652246 3.1078652246 3.1078652246 3.1078652246 3.1078652246 3.1078652246 3.0932710339 3.0786768432 
3.0786768432 3.0786768432 3.0786768432 3.0932710339 3.1078652246 3.1078652246 3.1078652246 3.0932710339 3.0786768432 
3.0786768432 3.0786768432 3.0786768432 3.0786768432 3.0932710339 3.1078652246 3.1078652246 3.1078652246 3.0932710339 
3.0786768432 3.0786768432 3.0786768432 3.0786768432 3.0932710339 3.0932710339 3.1078652246 3.1078652246 3.0932710339 
3.0786768432 3.0786768432 3.0786768432 3.0786768432 3.0786768432 3.0932710339 3.1078652246 3.1078652246 3.1078652246 
3.1078652246 3.0932710339 3.0786768432 3.0786768432 3.0786768432 3.0786768432 3.0932710339 3.1078652246 3.1078652246 
3.0932710339 3.0786768432 3.0786768432 3.0786768432 3.0786768432 3.0786768432 3.0932710339 3.1078652246 3.1078652246 
3.1078652246 3.1078652246 3.0932710339 3.0932710339 3.0786768432 3.0786768432 3.0932710339 3.1078652246 3.1078652246 
3.1078652246 3.0932710339 3.0786768432 3.0786768432 3.0786768432 3.0786768432 3.0932710339 3.1078652246 3.1078652246 
3.1078652246 3.0932710339 3.0786768432 3.0786768432 3.0932710339 3.1078652246 3.1078652246 3.0932710339 3.0786768432 
3.0786768432 3.0932710339 3.1078652246 3.1078652246 3.1078652246 3.1078652246 3.0932710339 3.0786768432 3.0786768432 
3.0786768432 3.0786768432 3.0932710339 3.1078652246 3.1078652246 3.0932710339 3.0786768432 3.0786768432 3.0932710339 
3.0932710339 3.1078652246 3.1078652246 3.1078652246 3.0932710339 3.0786768432 3.0786768432 3.0932710339 3.1078652246 
3.1078652246 3.0932710339 3.0932710339 3.0786768432 3.0786768432 3.0786768432 3.0786768432 3.0932710339 3.1078652246 
3.1078652246 3.1078652246 3.0932710339 3.0786768432 3.0786768432 3.0932710339 3.1078652246 3.1078652246 3.1078652246 
3.0932710339 3.0786768432 3.0786768432 3.0932710339 3.1078652246 3.1078652246 3.1078652246 3.0932710339 3.0786768432 
3.0786768432 3.0786768432 3.0786768432 3.0932710339 3.1078652246 3.1078652246 3.0932710339 3.0786768432 3.0786768432 
3.0932710339 3.1078652246 3.1078652246 3.1078652246 3.0932710339 3.0786768432 3.0786768432 3.0932710339 3.0932710339 
3.1078652246 3.1078652246 3.0932710339 3.0786768432 3.0786768432 3.0786768432 3.0786768432 3.0932710339 3.1078652246 
3.1078652246 3.0932710339 3.0786768432 3.0786768432 3.0932710339 3.1078652246 3.1078652246 3.1078652246 3.1078652246 
3.0932710339 3.0786768432 3.0786768432 3.0932710339 3.1078652246 3.1078652246 3.0932710339 3.0786768432 3.0786768432 
3.0786768432 3.0932710339 3.1078652246 3.1078652246 3.0932710339 3.0786768432 3.0786768432 3.0932710339 3.1078652246 
3.1078652246 3.1078652246 3.0932710339 3.0932710339 3.0786768432 3.0786768432 3.0932710339 3.1078652246 3.1078652246 
3.1078652246 3.0932710339 3.0786768432 3.0786768432 3.0786768432 3.0932710339 3.1078652246 3.1078652246 3.0932710339 
3.0786768432 3.0786768432 3.0932710339 3.1078652246 3.1078652246 3.0932710339 3.0786768432 3.0786768432 3.0786768432 
3.0932710339 3.1078652246 3.1078652246 3.0932710339 3.0786768432 3.0786768432 3.0786768432 3.0932710339 3.0932710339 
3.1078652246 3.1078652246 3.1078652246 3.0932710339 3.0786768432 3.0786768432 3.0932710339 3.1078652246 3.1078652246 
3.1078652246 3.0932710339 3.0786768432 3.0786768432 3.0932710339 3.1078652246 3.1078652246 3.0932710339 3.0786768432 
3.0786768432 3.0932710339 3.1078652246 3.1078652246 3.1078652246 3.0932710339 3.0786768432 3.0786768432 3.0932710339 
3.1078652246 3.1078652246 3.0932710339 3.0786768432 3.0786768432 3.0932710339 3.1078652246 3.1078652246 3.0932710339 
3.0786768432 3.0786768432 3.0786768432 3.0932710339 3.1078652246 3.1078652246 3.1078652246 3.0932710339 3.0786768432 
3.0786768432 3.0932710339 3.1078652246 3.1078652246 3.0932710339 3.0786768432 3.0786768432 3.0932710339 3.1078652246 
3.1078652246 3.1078652246 3.0932710339 3.0786768432 3.0786768432 3.0786768432 3.0932710339 3.1078652246 3.1224594153 
3.1224594153 3.1224594153 3.1224594153 3.1224594153 3.1078652246 3.0932710339 3.0786768432 3.0786768432 3.0932710339 
3.0932710339 3.1078652246 3.1078652246 3.1224594153 3.1224594153 3.1224594153 3.1224594153 3.1224594153 3.1224594153 
3.1078652246 3.0932710339 3.0786768432 3.0786768432 3.0932710339 3.1078652246 3.1224594153 3.1224594153 3.1224594153 
3.1224594153 3.1224594153 3.1078652246 3.0932710339 3.0786768432 3.0786768432 3.0932710339 3.1078652246 3.1224594153 
3.1224594153 3.1224594153 3.1078652246 3.0932710339 3.0786768432 3.0786768432 3.0932710339 3.1078652246 3.1224594153 
3.1224594153 3.1224594153 3.1224594153 3.1078652246 3.0932710339 3.0786768432 3.0786768432 3.0932710339 3.1078652246 
3.1078652246 3.1224594153 3.1224594153 3.1078652246 3.0932710339 3.0786768432 3.0786768432 3.0932710339 3.1078652246 
3.1224594153 3.1224594153 3.1224594153 3.1224594153 3.1078652246 3.1078652246 3.0932710339 3.0786768432 3.0786768432 
3.0932710339 3.1078652246 3.1224594153 3.1224594153 3.1224594153 3.1078652246 3.0932710339 3.0786768432 3.0786768432 
3.0932710339 3.0932710339 3.1078652246 3.1078652246 3.1224594153 3.1224594153 3.1078652246 3.0932710339 3.0932710339 
3.0786768432 3.0786768432 3.0786768432 3.0932710339 3.1078652246 3.1224594153 3.1224594153 3.1224594153 3.1078652246 
3.0932710339 3.0932710339 3.0786768432 3.0786768432 3.0786768432 3.0786768432 3.0786768432 3.0786768432 3.0640826525 
3.0640826525 3.0640826525 3.0786768432 3.0932710339 3.1078652246 3.1224594153 3.1224594153 3.1224594153 3.1078652246 
3.0932710339 3.0786768432 3.0786768432 3.0786768432 3.0786768432 3.0786768432 3.0640826525 3.0640826525 3.0640826525 
3.0640826525 3.0640826525 3.0640826525 3.0640826525 3.0640826525 3.0786768432 3.0932710339 3.1078652246 3.1224594153 
3.1224594153 3.1224594153 3.1078652246 3.0932710339 3.0786768432 3.0786768432 3.0786768432 3.0786768432 3.0640826525 
3.0640826525 3.0640826525 3.0786768432 3.0932710339 3.1078652246 3.1224594153 3.1224594153 3.1078652246 3.0932710339 
3.0786768432 3.0786768432 3.0786768432 3.0786768432 3.0786768432 3.0786768432 3.0640826525 3.0640826525 3.0640826525 
3.0786768432 3.0932710339 3.1078652246 3.1078652246 3.1224594153 3.1224594153 3.1224594153 3.1224594153 3.1078652246 
3.0932710339 3.0786768432 3.0786768432 3.0786768432 3.0786768432 3.0786768432 3.0640826525 3.0640826525 3.0640826525 
3.0786768432 3.0932710339 3.1078652246 3.1224594153 3.1224594153 3.1224594153 3.1078652246 3.1078652246 3.0932710339 
3.0786768432 3.0786768432 3.0786768432 3.0786768432 3.0786768432 3.0640826525 3.0640826525 3.0640826525 3.0786768432 
3.0932710339 3.1078652246 3.1224594153 3.1224594153 3.1078652246 3.0932710339 3.0786768432 3.0786768432 3.0786768432 
3.0786768432 3.0786768432 3.0640826525 3.0640826525 3.0640826525 3.0786768432 3.0932710339 3.1078652246 3.1224594153 
3.1224594153 3.1078652246 3.0932710339 3.0786768432 3.0786768432 3.0786768432 3.0786768432 3.0640826525 3.0640826525 
3.0786768432 3.0932710339 3.1078652246 3.1224594153 3.1224594153 3.1224594153 3.1224594153 3.1078652246 3.0932710339 
3.0786768432 3.0786768432 3.0786768432 3.0786768432 3.0786768432 3.0640826525 3.0640826525 3.0640826525 3.0640826525 
3.0786768432 3.0932710339 3.1078652246 3.1078652246 3.1224594153 3.1224594153 3.1078652246 3.0932710339 3.0932710339 
3.0786768432 3.0786768432 3.0786768432 3.0786768432 3.0640826525 3.0640826525 3.0786768432 3.0932710339 3.0932710339 
3.1078652246 3.1224594153 3.1224594153 3.1224594153 3.1078652246 3.0932710339 3.0786768432 3.0786768432 3.0786768432 
3.0640826525 3.0640826525 3.0640826525 3.0640826525 3.0786768432 3.0932710339 3.1078652246 3.1224594153 3.1224594153 
3.1078652246 3.0932710339 3.0786768432 3.0786768432 3.0786768432 3.0640826525 3.0640826525 3.0786768432 3.0932710339 
3.1078652246 3.1224594153 3.137053606 3.137053606 3.137053606 3.1224594153 3.1224594153 3.1078652246 3.0932710339 
3.0786768432 3.0786768432 3.0786768432 3.0786768432 3.0640826525 3.0640826525 3.0786768432 3.0932710339 3.1078652246 
3.1078652246 3.1224594153 3.1224594153 3.137053606 3.137053606 3.137053606 3.137053606 3.137053606 3.1224594153 
3.1078652246 3.0932710339 3.0786768432 3.0786768432 3.0786768432 3.0640826525 3.0640826525 3.0786768432 3.0932710339 
3.1078652246 3.1224594153 3.137053606 3.137053606 3.137053606 3.1224594153 3.1078652246 3.0932710339 3.0786768432 
3.0786768432 3.0786768432 3.0640826525 3.0640826525 3.0786768432 3.0932710339 3.1078652246 3.1224594153 3.1224594153 
3.137053606 3.137053606 3.137053606 3.137053606 3.1224594153 3.1078652246 3.1078652246 3.0932710339 3.0786768432 
3.0786768432 3.0786768432 3.0786768432 3.0640826525 3.0640826525 3.0786768432 3.0932710339 3.1078652246 3.1078652246 
3.1224594153 3.137053606 3.137053606 3.137053606 3.1224594153 3.1078652246 3.0932710339 3.0786768432 3.0786768432 
3.0786768432 3.0786768432 3.0640826525 3.0640826525 3.0640826525 3.0640826525 3.0786768432 3.0932710339 3.1078652246 
3.1224594153 3.137053606 3.137053606 3.137053606 3.1224594153 3.1224594153 3.1078652246 3.0932710339 3.0786768432 
3.0786768432 3.0786768432 3.0640826525 3.0640826525 3.0786768432 3.0932710339 3.0932710339 3.1078652246 3.1224594153 
3.1224594153 3.137053606 3.137053606 3.137053606 3.1224594153 3.1078652246 3.0932710339 3.0786768432 3.0786768432 
3.0786768432 3.0786768432 3.0640826525 3.0640826525 3.0786768432 3.0932710339 3.1078652246 3.1224594153 3.137053606 
3.137053606 3.137053606 3.137053606 3.1224594153 3.1078652246 3.0932710339 3.0786768432 3.0786768432 3.0786768432 
3.0640826525 3.0494884618 3.0494884618 3.0494884618 3.0494884618 3.0494884618 3.0640826525 3.0786768432 3.0932710339 
3.1078652246 3.1224594153 3.137053606 3.137053606 3.1224594153 3.1078652246 3.0932710339 3.0786768432 3.0786768432 
3.0786768432 3.0786768432 3.0640826525 3.0494884618 3.0494884618 3.0494884618 3.0494884618 3.0640826525 3.0786768432 
3.0932710339 3.1078652246 3.1078652246 3.1224594153 3.1224594153 3.137053606 3.137053606 3.137053606 3.137053606 
3.1224594153 3.1078652246 3.0932710339 3.0786768432 3.0786768432 3.0786768432 3.0786768432 3.0640826525 3.0640826525 
3.0494884618 3.0494884618 3.0494884618 3.0640826525 3.0786768432 3.0932710339 3.1078652246 3.1224594153 3.137053606 
3.137053606 3.137053606 3.1224594153 3.1078652246 3.0932710339 3.0786768432 3.0786768432 3.0786768432 3.0640826525 
3.0494884618 3.0494884618 3.0494884618 3.0640826525 3.0786768432 3.0932710339 3.0932710339 3.1078652246 3.1224594153 
3.137053606 3.137053606 3.1224594153 3.1078652246 3.0932710339 3.0932710339 3.0786768432 3.0786768432 3.0786768432 
3.0786768432 3.0640826525 3.0494884618 3.0494884618 3.0494884618 3.0640826525 3.0786768432 3.0932710339 3.1078652246 
3.1078652246 3.1224594153 3.1224594153 3.137053606 3.137053606 3.137053606 3.1224594153 3.1078652246 3.0932710339 
3.0786768432 3.0786768432 3.0786768432 3.0786768432 3.0640826525 3.0494884618 3.0494884618 3.0494884618 3.0640826525 
3.0786768432 3.0932710339 3.1078652246 3.1224594153 3.137053606 3.137053606 3.1224594153 3.1078652246 3.0932710339 
3.0786768432 3.0786768432 3.0786768432 3.0640826525 3.0494884618 3.0494884618 3.0494884618 3.0640826525 3.0786768432 
3.0932710339 3.1078652246 3.1224594153 3.137053606 3.137053606 3.137053606 3.1224594153 3.1078652246 3.0932710339 
3.0786768432 3.0786768432 3.0786768432 3.0786768432 3.0640826525 3.0494884618 3.0494884618 3.0640826525 3.0786768432 
3.0786768432 3.0932710339 3.1078652246 3.1078652246 3.1224594153 3.137053606 3.137053606 3.137053606 3.1224594153 
3.1078652246 3.0932710339 3.0786768432 3.0786768432 3.0786768432 3.0640826525 3.0494884618 3.0494884618 3.0640826525 
3.0786768432 3.0932710339 3.1078652246 3.1224594153 3.1224594153 3.137053606 3.137053606 3.1224594153 3.1078652246 
3.0932710339 3.0786768432 3.0786768432 3.0786768432 3.0786768432 3.0786768432 3.0640826525 3.0494884618 3.0494884618 
3.0494884618 3.0640826525 3.0786768432 3.0932710339 3.0932710339 3.1078652246 3.1224594153 3.137053606 3.137053606 
3.1224594153 3.1078652246 3.0932710339 3.0786768432 3.0786768432 3.0786768432 3.0786768432 3.0640826525 3.0640826525 
3.0494884618 3.0348942711 3.0348942711 3.0348942711 3.0348942711 3.0494884618 3.0640826525 3.0786768432 3.0932710339 
3.1078652246 3.1224594153 3.137053606 3.137053606 3.1224594153 3.1078652246 3.0932710339 3.0786768432 3.0786768432 
3.0786768432 3.0786768432 3.0640826525 3.0494884618 3.0348942711 3.0348942711 3.0348942711 3.0348942711 3.0494884618 
3.0494884618 3.0640826525 3.0786768432 3.0932710339 3.1078652246 3.1224594153 3.137053606 3.137053606 3.137053606 
3.1224594153 3.1078652246 3.0932710339 3.0786768432 3.0640826525 3.0640826525 3.0640826525 3.0640826525 3.0640826525 
3.0640826525 3.0786768432 3.0786768432 3.0786768432 3.0640826525 3.0494884618 3.0348942711 3.0348942711 3.0348942711 
3.0348942711 3.0494884618 3.0640826525 3.0786768432 3.0932710339 3.1078652246 3.1078652246 3.1224594153 3.1224594153 
3.137053606 3.137053606 3.1224594153 3.1078652246 3.1078652246 3.0932710339 3.0786768432 3.0640826525 3.0640826525 
3.0640826525 3.0786768432 3.0786768432 3.0786768432 3.0786768432 3.0640826525 3.0494884618 3.0348942711 3.0348942711 
3.0494884618 3.0640826525 3.0786768432 3.0932710339 3.1078652246 3.1224594153 3.1224594153 3.137053606 3.137053606 
3.1224594153 3.1078652246 3.0932710339 3.0786768432 3.0786768432 3.0640826525 3.0640826525 3.0640826525 3.0786768432 
3.0786768432 3.0786768432 3.0786768432 3.0786768432 3.0640826525 3.0494884618 3.0348942711 3.0348942711 3.0494884618 
3.0640826525 3.0786768432 3.0932710339 3.1078652246 3.1224594153 3.137053606 3.137053606 3.137053606 3.1224594153 
3.1078652246 3.0932710339 3.0786768432 3.0640826525 3.0640826525 3.0640826525 3.0640826525 3.0786768432 3.0786768432 
3.0786768432 3.0786768432 3.0640826525 3.0494884618 3.0494884618 3.0348942711 3.0348942711 3.0203000804 3.0203000804 
3.0203000804 3.0203000804 3.0348942711 3.0348942711 3.0494884618 3.0640826525 3.0786768432 3.0786768432 3.0932710339 
3.1078652246 3.1224594153 3.137053606 3.137053606 2.9619233175 2.9619233175 2.9765175082 2.9765175082 2.991111699 
2.991111699 3.0057058897 3.0057058897 3.0203000804 3.0203000804 3.0348942711 3.0348942711 3.0494884618 3.0494884618 
3.0640826525 3.0640826525 3.0786768432 3.0786768432 3.0932710339 3.0932710339 3.1078652246 3.1078652246 3.1224594153 
3.1224594153 3.137053606 3.137053606 2.9619233175 2.9765175082 2.991111699 3.0057058897 3.0203000804 3.0348942711 
3.0494884618 3.0640826525 3.0786768432 3.0932710339 3.1078652246 3.1224594153 3.137053606 2.9619233175 2.9765175082 
2.991111699 3.0057058897 3.0203000804 3.0348942711 3.0494884618 3.0640826525 3.0786768432 3.0932710339 3.1078652246 
3.1224594153 3.137053606 2.9619233175 2.9765175082 2.991111699 3.0057058897 3.0203000804 3.0348942711 3.0494884618 
3.0640826525 3.0786768432 3.0932710339 3.1078652246 3.1224594153 3.137053606 2.9619233175 2.9765175082 2.991111699 
3.0057058897 3.0203000804 3.0348942711 3.0494884618 3.0640826525 3.0786768432 3.0932710339 3.1078652246 3.1224594153 
3.137053606 2.9619233175 2.9765175082 2.991111699 3.0057058897 3.0203000804 3.0348942711 3.0494884618 3.0640826525 
3.0786768432 3.0932710339 3.1078652246 3.1224594153 3.137053606 2.9619233175 2.9765175082 2.991111699 3.0057058897 
3.0203000804 3.0348942711 3.0494884618 3.0640826525 3.0786768432 3.0932710339 3.1078652246 3.1224594153 3.137053606 
2.9619233175 2.9765175082 2.991111699 3.0057058897 3.0203000804 3.0348942711 3.0494884618 3.0640826525 3.0786768432 
3.0932710339 3.1078652246 3.1224594153 3.137053606 2.9619233175 2.9765175082 2.991111699 3.0057058897 3.0203000804 
3.0348942711 3.0494884618 3.0640826525 3.0786768432 3.0932710339 3.1078652246 3.1224594153 3.137053606 2.9619233175 
2.9765175082 2.991111699 3.0057058897 3.0203000804 3.0348942711 3.0494884618 3.0640826525 3.0786768432 3.0932710339 
3.1078652246 3.1224594153 3.137053606 3.137053606 3.1224594153 3.1078652246 3.0932710339 3.0932710339 3.0786768432 
3.0640826525 3.0640826525 3.0786768432 3.0786768432 3.0786768432 3.0640826525 3.0494884618 3.0348942711 3.0203000804 
3.0203000804 3.0203000804 3.0348942711 3.0494884618 3.0640826525 3.0786768432 3.0932710339 3.1078652246 2.9619233175 