# vtk DataFile Version 4.2
vtk output
ASCII
DATASET UNSTRUCTURED_GRID
POINTS 1740 double
2144.07 -94.44003 0 2911 0 0 16.54298 -37.82236 0 
5.09149 -21.30132 0 1.27433 -10.75385 0 0 0 0 
2.54575 15.14293 0 6.36291 23.76126 0 14.00014 34.89063 0 
30.50239 50.70793 0 33.39435 -52.93479 0 2050.91 -103.7862 0 
60.1465 -69.72165 0 88.83633 -83.2817 0 118.7656 -94.71113 0 
153.4168 -105.7022 0 199.5806 -117.771 0 261.4466 -130.7139 0 
345.846 -144.1892 0 460.3522 -157.0592 0 608.4185 -167.1903 0 
783.2313 -172.4016 0 941.0559 -172.4533 0 1063.409 -170.1096 0 
1164.153 -166.8746 0 1263.449 -162.682 0 1375.468 -156.8941 0 
1513.293 -148.414 0 1665.281 -137.5317 0 1791.864 -127.3721 0 
2195.451 -89.09491 0 2273.924 -80.67077 0 2383.731 -68.3513 0 
2517.64 -52.47337 0 2649.227 -35.9232 0 2740.773 -23.82991 0 
2804.387 -15.13419 0 2848.802 -8.916218 0 2881.944 -4.196067 0 
56.61447 67.79801 0 84.09687 81.25172 0 112.4783 92.48395 0 
142.1748 102.3504 0 174.8563 111.6168 0 213.124 120.8806 0 
260.3759 130.5151 0 324.6539 141.1779 0 418.1422 152.9178 0 
535.6656 162.9871 0 690.9154 170.4255 0 902.6513 172.7852 0 
1100.32 169.0517 0 1270.99 162.3262 0 1462.794 151.6837 0 
1631.287 140.0952 0 1747.993 131 0 1922.788 115.9027 0 
2069.56 101.951 0 2128.804 96.0021 0 2297.147 78.11721 0 
2414.379 64.80104 0 2554.023 47.99319 0 2673.693 32.73885 0 
2757.97 21.50315 0 2814.297 13.7575 0 2852.02 8.460961 0 
2882.272 4.148909 0 1791.052 127.4402 0 1366.894 157.3738 0 
1444.38 -152.8302 0 1547.039 146.1296 0 1589.287 -143.1614 0 
1878.731 119.8675 0 1997.072 108.9828 0 1185.654 166.0472 0 
1882.536 -119.5292 0 1971.323 -111.4145 0 1684.777 136.0292 0 
2099.317 -98.9855 0 2234.809 84.9091 0 2181.695 90.53914 0 
1728.573 -132.5703 0 1718.815 133.3509 0 1834.825 123.7132 0 
1960.305 112.4444 0 2033.69 105.4648 0 2099.184 98.99892 0 
2214.291 -75.42405893 396.8421 2955.512 15.191161611 396.8421 158.0786 -30.108961124 396.8421 
147.0109 -14.276794276 396.8421 143.3217 -4.1496405249 396.8421 142.09 6.1901685218 396.8421 
144.5505 20.774014973 396.8421 148.2398 29.087153675 396.8421 155.621 39.837285856 396.8421 
171.5701 55.146483353 396.8421 174.3652 -44.555415339 396.8421 2124.254 -84.568249454 396.8421 
200.2206 -60.557029703 396.8421 227.9488 -73.44238657 396.8421 256.8748 -84.270296719 396.8421 
290.3647 -94.649372958 396.8421 334.981 -105.99981539 396.8421 394.7733 -118.10231955 396.8421 
476.3434 -130.59068467 396.8421 587.0114 -142.33219228 396.8421 730.1145 -151.26600675 396.8421 
899.0676 -155.35097306 396.8421 1051.602 -154.60012348 396.8421 1169.853 -151.75457653 396.8421 
1267.221 -148.17811476 396.8421 1363.188 -143.70878939 396.8421 1471.452 -137.67677906 396.8421 
1604.657 -128.99267406 396.8421 1751.55 -118.00605843 396.8421 1873.891 -107.8559518 396.8421 
2263.949 -70.212587907 396.8421 2339.792 -62.023809744 396.8421 2445.918 -50.098951383 396.8421 
2575.338 -34.80950492 396.8421 2702.515 -18.958325053 396.8421 2790.992 -7.4254739919 396.8421 
2852.473 0.84349195428 396.8421 2895.4 6.7448129566 396.8421 2927.431 11.21848494 396.8421 
196.807 71.733080645 396.8421 223.3682 84.828594688 396.8421 250.7983 95.791979073 396.8421 
279.4994 105.44881088 396.8421 311.0855 114.54527434 396.8421 348.0705 123.67066464 396.8421 
393.7383 133.20344342 396.8421 455.8617 143.82148483 396.8421 546.2162 155.6403322 396.8421 
659.8003 165.98637299 396.8421 809.846 174.00627979 396.8421 1014.485 177.42490078 396.8421 
1205.528 174.85263265 396.8421 1370.477 169.20373719 396.8421 1555.851 159.80338665 396.8421 
1718.696 149.30052339 396.8421 1831.49 140.94057304 396.8421 2000.426 126.90092218 396.8421 
2142.278 113.78342635 396.8421 2199.537 108.15470255 396.8421 2362.236 91.119961105 396.8421 
2475.539 78.338478442 396.8421 2610.501 62.099869642 396.8421 2726.16 47.270674422 396.8421 
2807.613 36.297833066 396.8421 2862.05 28.710433867 396.8421 2898.509 23.511902632 396.8421 
2927.749 19.273763534 396.8421 1873.106 137.64681039 396.8421 1463.165 164.87087019 396.8421 
1538.054 -133.4978156 396.8421 1637.272 154.79450536 396.8421 1678.104 -123.67216561 396.8421 
1957.846 130.60504707 396.8421 2072.22 120.41024676 396.8421 1288 172.38068441 396.8421 
1961.524 -100.07435955 396.8421 2047.334 -92.064364988 396.8421 1770.393 145.57388364 396.8421 
2171.038 -79.866132621 396.8421 2301.989 97.607836234 396.8421 2250.655 102.96868004 396.8421 
1812.721 -113.03836839 396.8421 1803.29 143.10941266 396.8421 1915.411 134.18671615 396.8421 
2036.686 123.66099923 396.8421 2107.61 117.09858463 396.8421 2170.909 110.99275053 396.8421 
2284.511 -59.817948644 793.6842 3000.027 27.220721953 793.6842 299.6143 -22.088950382 793.6842 
288.9304 -6.8977486953 793.6842 285.3691 2.8341503666 793.6842 284.1801 12.781434338 793.6842 
286.5551 26.82989271 793.6842 290.1167 34.84777583 793.6842 297.2417 45.227359205 793.6842 
312.6379 60.03228958 793.6842 315.336 -35.923628321 793.6842 2197.597 -68.700716627 793.6842 
340.2947 -51.213967387 793.6842 367.0612 -63.497060587 793.6842 394.9839 -73.795180635 793.6842 
427.3123 -83.642497984 793.6842 470.3812 -94.378857871 793.6842 528.0998 -105.77788536 793.6842 
606.8411 -117.46328908 793.6842 713.6708 -128.32302072 793.6842 851.8104 -136.37427124 793.6842 
1014.904 -139.69706687 793.6842 1162.147 -138.46268801 793.6842 1276.298 -135.35370121 793.6842 
1370.288 -131.62492319 793.6842 1462.927 -127.05774271 793.6842 1567.436 -120.97353642 793.6842 
1696.021 -112.30415275 793.6842 1837.82 -101.42931826 793.6842 1955.917 -91.445594055 793.6842 
2332.447 -54.765825869 793.6842 2405.659 -46.841404297 793.6842 2508.105 -35.329871502 793.6842 
2633.037 -20.614769993 793.6842 2755.801 -5.4060262364 793.6842 2841.209 5.6323537458 793.6842 
2900.561 13.533935179 793.6842 2941.997 19.166922647 793.6842 2972.917 23.433892131 793.6842 
336.9995 76.106547785 793.6842 362.6396 88.825724078 793.6842 389.1182 99.495863116 793.6842 
416.8239 108.91336089 793.6842 447.3145 117.80321447 793.6842 483.0167 126.74295715 793.6842 
527.1009 136.11031455 793.6842 587.0697 146.58912537 793.6842 674.2905 158.33630026 793.6842 
783.9349 168.75175014 793.6842 928.7766 177.05570208 793.6842 1126.317 181.10014763 793.6842 
1310.735 179.27268764 793.6842 1469.963 174.34385656 793.6842 1648.908 165.80102298 793.6842 
1806.105 156.07075046 793.6842 1914.987 148.24732836 793.6842 2078.064 135.00302723 793.6842 
2214.996 122.53827502 793.6842 2270.269 117.16778811 793.6842 2427.326 100.84702245 793.6842 
2536.699 88.543401634 793.6842 2666.98 72.851364875 793.6842 2778.628 58.469966034 793.6842 
2857.255 47.800780122 793.6842 2909.806 40.410914028 793.6842 2945.001 35.342265847 793.6842 
2973.224 31.206898783 793.6842 1955.16 145.15070178 793.6842 1559.437 170.43526785 793.6842 
1631.729 -116.79133018 793.6842 1727.505 161.17736603 793.6842 1766.921 -107.02733216 793.6842 
2036.96 138.50808395 793.6842 2147.368 128.84479149 793.6842 1390.347 177.15398329 793.6842 
2040.511 -83.823197002 793.6842 2123.346 -76.001296352 793.6842 1856.009 152.59024341 793.6842 
2242.759 -64.130023373 793.6842 2369.167 107.07412068 793.6842 2319.614 112.20934747 793.6842 
1896.869 -96.536681498 793.6842 1887.765 150.28225796 793.6842 1995.998 141.89037847 793.6842 
2113.066 131.93155988 793.6842 2181.531 125.69550348 793.6842 2242.634 119.87713558 793.6842 
2354.732 -47.028232623 1190.526 3044.539 36.572390862 1190.526 441.15 -14.247526413 1190.526 
430.8497 0.33926651529 1190.526 427.4164 9.694793781 1190.526 426.2701 19.265532635 1190.526 
428.5601 32.795694981 1190.526 431.9934 40.525112201 1190.526 438.8627 50.539605011 1190.526 
453.7057 64.840981788 1190.526 456.3069 -27.512267644 1190.526 2270.94 -55.609198899 1190.526 
480.3688 -42.148542932 1190.526 506.1737 -53.885375265 1190.526 533.0934 -63.709064491 1190.526 
564.26 -73.086341542 1190.526 605.7815 -83.288270794 1190.526 661.4265 -94.087475536 1190.526 
737.3385 -105.10788104 1190.526 840.33 -115.26788127 1190.526 973.5064 -122.66510131 1190.526 
1130.74 -125.4855277 1190.526 1272.693 -123.9911423 1190.526 1382.742 -120.78398852 1190.526 
1473.356 -117.03303018 1190.526 1562.666 -112.4902909 1190.526 1663.42 -106.48392631 1190.526 
1787.385 -97.977170953 1190.526 1924.09 -87.359356144 1190.526 2037.944 -77.647248523 1190.526 
2400.946 -42.153092057 1190.526 2471.527 -34.513456635 1190.526 2570.292 -23.429723059 1190.526 
2690.735 -9.2830681944 1190.526 2809.091 5.315974377 1190.526 2891.43 15.899505788 1190.526 
2948.647 23.469751583 1190.526 2988.597 28.863816905 1190.526 3018.403 32.94841199 1190.526 
477.1918 80.393281899 1190.526 501.9109 92.719629548 1190.526 527.4382 103.07561059 1190.526 
554.1485 112.22891379 1190.526 583.5435 120.88215543 1190.526 617.963 129.59856769 1190.526 
660.4633 138.75050437 1190.526 718.2775 149.01722351 1190.526 802.3645 160.57884646 1190.526 
908.0698 170.90998509 1190.526 1047.707 179.28199288 1190.526 1238.151 183.64419423 1190.526 
1415.942 182.27022525 1190.526 1569.449 177.81479689 1190.526 1741.965 169.86586471 1190.526 
1893.514 160.69447517 1190.526 1998.484 153.27239496 1190.526 2155.702 140.64489887 1190.526 
2287.714 128.70876657 1190.526 2341.001 123.55391834 1190.526 2492.415 107.85203555 1190.526 
2597.858 95.984694314 1190.526 2723.46 80.818442127 1190.526 2831.095 66.893820235 1190.526 
2906.899 56.550384675 1190.526 2957.56 49.380429033 1190.526 2991.49 44.460123675 1190.526 
3018.699 40.4443874 1190.526 2037.214 150.32619479 1190.526 1655.708 174.19646576 1190.526 
1725.403 -102.37418819 1190.526 1817.738 165.51810771 1190.526 1855.738 -92.819119064 1190.526 
2116.075 143.9930329 1190.526 2222.516 134.75311996 1190.526 1492.694 180.38049038 1190.526 
2119.498 -70.249690236 1190.526 2199.357 -62.671661771 1190.526 1941.625 157.39659865 1190.526 
2314.479 -51.192237923 1190.526 2436.346 113.84893896 1190.526 2388.573 118.78899046 1190.526 
1981.017 -82.596138692 1190.526 1972.24 155.20600791 1190.526 2076.584 147.21978731 1190.526 
[...]
POINT_DATA 1740
FIELD FieldData 1
Pressure 1 1740 double
3.1049501924 3.0183805998 3.009507925 2.9857787435 2.9789445625 2.9591953992 2.9716404563 2.988880136 3.0199350197 
3.0339850198 3.0113237519 3.1089907077 3.0339223897 3.0484780153 3.0657982464 3.0653580606 3.0825769372 3.0876882384 
3.1090366506 3.1139052359 3.1328412665 3.1414898543 3.1435091248 3.1499126536 3.1446233315 3.1407415281 3.137129106 
3.1332748477 3.1261352081 3.1200848174 3.1024302901 3.0989546909 3.0934240186 3.0852294227 3.0743544423 3.0642660661 
3.054405067 3.0456641793 3.0377080107 3.0698247787 3.0814899018 3.0939109991 3.1068508204 3.1129162866 3.1197325204 
3.1268949656 3.1346498137 3.1502676081 3.1627686317 3.1791828597 3.1897189529 3.196523887 3.2023554824 3.2078360131 
3.2120596336 3.21541086 3.2162497203 3.1067487839 3.0969582182 3.085831733 3.0798671028 3.0710568253 3.0612891583 
3.0508661138 3.0405350219 3.032984837 3.0316874785 3.2152436979 3.2057707378 3.1357646556 3.2095528626 3.1295973236 
3.2158186467 3.2178300605 3.2035604435 3.1163465182 3.1125630727 3.2134560436 3.1068096854 3.0897005097 3.0918879379 
3.1227987478 3.2150200751 3.215240259 3.2160674559 3.2319984141 3.0941228899 3.1019036154 3.0234714569 3.0276732669 
3.0011446695 3.0078011452 2.9862595497 2.9933090986 3.0050917451 3.0335973215 3.0520630944 3.0358581209 3.1062567319 
3.056181709 3.0687365357 3.0818374287 3.08589965 3.1012770221 3.1108834976 3.1242044063 3.1293180441 3.1400790904 
3.1443130989 3.1481874784 3.1490376637 3.1440346404 3.1394174307 3.1336155576 3.1295087152 3.1228990261 3.1172274118 
3.0996275584 3.095490569 3.0898979355 3.0817537759 3.0708945037 3.0608530028 3.051101913 3.0434943898 3.0286632591 
3.0851218762 3.1061364497 3.1181021078 3.1267405171 3.1356965329 3.1405164267 3.1459592529 3.1559240296 3.1678453716 
3.1768823527 3.1858887751 3.1935896637 3.2001220791 3.2064765279 3.2096581657 3.2124407493 3.2156473776 3.2176533359 
3.0972772089 3.0982672416 3.0911611012 3.0850732342 3.0765683082 3.0656271237 3.0552459306 3.0451924889 3.0386288899 
3.0389655822 3.2161350998 3.207958111 3.1325497042 3.2123983703 3.1258589343 3.217365575 3.2187401167 3.2052195412 
3.1133899788 3.1096456052 3.2141475632 3.1042347465 3.0944581081 3.0971783577 3.120108206 3.2149000977 3.215967712 
3.2181397439 3.120409777 3.0993370939 3.0997826749 3.0239226955 3.0279952905 3.0003640777 3.0018931681 2.9842745015 
2.9962034044 3.0098558792 3.0387276041 3.0598677116 3.0443680244 3.104031579 3.0592733727 3.0783335679 3.0962931803 
3.1027423073 3.1154875878 3.1239088082 3.1365792715 3.1427768234 3.1498376264 3.1524476335 3.151894984 3.1503365417 
3.1436539173 3.1377241778 3.1319516905 3.1263294539 3.1204788579 3.1152873317 3.0974206553 3.093569556 3.087767583 
3.0798540276 3.0688601416 3.0587022459 3.0495600273 3.0422952063 3.0288875491 3.0925072121 3.1142041354 3.132288338 
3.1413677629 3.1523704145 3.1606319588 3.1704586288 3.1746473486 3.182967434 3.1928745657 3.1980680802 3.2034877592 
3.2062371288 3.2128855276 3.2153281109 3.2160102509 3.2180547988 3.2196865088 3.0955122969 3.0952915144 3.0921685335 
3.0866874179 3.078607717 3.0677987792 3.0577814096 3.0478132955 3.0406426668 3.0418522805 3.2186191714 3.2144495743 
3.1296926155 3.2162120515 3.1232707971 3.2193855731 3.098357026 3.2103834748 3.1113420401 3.1074615705 3.2166214312 
3.1021389887 3.0946384887 3.0957423309 3.1178169053 3.2171260234 3.2189553392 3.2226908123 3.0920450108 3.095251537 
3.0982353668 3.0242509543 3.0285845456 3.0002493036 3.0025285862 2.9825602051 2.9923171126 3.0069751252 3.0394947576 
3.0610013302 3.0440579596 3.1024945178 3.0645348508 3.0821359162 3.1013394426 3.1100902661 3.1223462911 3.1305540255 
3.1431359028 3.1506202964 3.1565014543 3.1574985004 3.1555491337 3.1515786007 3.1438599536 3.1372980821 3.1311322251 
3.1251399853 3.1189799819 3.113664359 3.0959683031 3.0921238243 3.0865443056 3.0787118525 3.0679312741 3.0578170545 
3.049078284 3.0418216257 3.0289314833 3.096415224 3.1196934774 3.13483401 3.1468738227 3.1540126818 3.1651555912 
3.1773103626 3.186986434 3.1948021332 3.2047217863 3.2099455522 3.2143372495 3.2151995945 3.2209340446 3.2232064883 
3.2228897276 3.2239657369 3.2177812144 3.0936059541 3.0944687689 3.0914357168 3.0861151327 3.0780212992 3.0677953139 
3.0580393999 3.0484284495 3.0409970627 3.0424032362 3.2240402658 3.2220254888 3.1286682851 3.2233620439 3.1218991732 
3.2242664999 3.0878704061 3.2184534296 3.1097893522 3.1057800958 3.2231397369 3.1005382693 3.0934288989 3.0943609803 
3.1162524709 3.2232076316 3.2244185691 3.1064675628 3.0925060501 3.0941679628 3.0972674064 3.0240308204 3.0307141562 
3.0009846421 3.0071842211 2.9864296422 2.9943197137 3.0079416395 3.0416899744 3.0622576907 3.0454496947 3.1014707041 
3.067050775 3.0845543946 3.1016072662 3.1114578404 3.1243352132 3.1348064269 3.1459565862 3.1540898024 3.1605338482 
3.1604559097 3.1571648917 3.1514334151 3.1431316582 3.1362211797 3.1297876688 3.124001496 3.1178986314 3.1123576558 
3.0949483195 3.0910852253 3.0856255959 3.0778535096 3.0673053322 3.0573547262 3.048801894 3.041428886 3.0290385732 
3.0978927622 3.1215893041 3.1364371203 3.1493215845 3.1584105263 3.1695476114 3.1806550292 3.1864534004 3.1973907934 
3.2098968896 3.2184531729 3.222679256 3.2239262914 3.228612346 3.2304133412 3.2300678247 3.2306375259 3.0987486011 
3.0917526905 3.0918871884 3.0895860762 3.0844901401 3.0765945437 3.0666852783 3.0571181371 3.0477825615 3.040332698 
3.0421973506 3.2308506761 3.2300685186 3.1275241836 3.2303850865 3.1208193506 3.2291366776 3.0891875608 3.2267693772 
3.108530022 3.1045595381 3.2300739624 3.0993310818 3.0915805628 3.0915725232 3.1151208849 3.2301428156 3.2316898556 
3.0871318525 3.09127374 3.0920422778 3.0964254007 3.023643891 3.0318532785 3.0023729524 3.0092127777 2.9873555936 
2.9958951152 3.0094020451 3.0425521612 3.064114195 3.0463252772 3.1004961406 3.0681927788 3.0864280208 3.1025464194 
3.1129304935 3.1258406402 3.137166613 3.1487753251 3.1571496994 3.1640199921 3.1629114235 3.1582851525 3.1509383693 
3.1423009881 3.1352191966 3.1288751336 3.1228599126 3.1168446081 3.1113777071 3.09407424 3.0902251164 3.0848632535 
3.0771480767 3.0667220046 3.0568105121 3.0483778368 3.04091793 3.0290813826 3.0993288168 3.1233890543 3.1383612673 
3.1513086672 3.1603770339 3.1720365596 3.1844479793 3.1915820986 3.2028201349 3.214759081 3.2251827061 3.2301751852 
3.232146065 3.2374755492 3.2386575404 3.2374167122 3.2374721119 3.0884674792 3.091744276 3.0911866658 3.0883567549 
3.0834416147 3.0758432604 3.065986718 3.0564852552 3.047416457 3.039846538 3.0418787466 3.2375748161 3.2380523811 
3.1264308954 3.238097544 3.1197502477 3.2246136549 3.0906484987 3.2349304534 3.1075226283 3.1036102054 3.237089979 
3.0985436277 3.0902875306 3.0906481506 3.1140897478 3.2372022218 3.2398263778 3.0919330453 3.0914759934 3.0915745904 
3.0958506309 3.0232670443 3.0322746993 3.0025982545 3.0088492389 2.9869698669 2.9959446572 3.0095840013 3.0427322205 
3.0646198438 3.0467652094 3.0999828191 3.0687860569 3.0872612199 3.1033218016 3.1140411875 3.1270766851 3.138908087 
3.1506843838 3.1592791697 3.1666426793 3.1648675186 3.1591104853 3.1504934757 3.1418042953 3.1346864276 3.128428607 
3.1220854428 3.116238711 3.1107488315 3.0935297212 3.0896951585 3.0843792336 3.0767200113 3.0663494372 3.056390711 
3.0480197777 3.0404510665 3.0291443397 3.0998927664 3.1241971423 3.1396320766 3.152684117 3.1621316503 3.1738527034 
3.1861789498 3.1941068269 3.2058258081 3.2187541466 3.2301063599 3.2367378092 3.2396356572 3.2455557104 3.2470972095 
3.2458257459 3.2451842439 3.0862565728 3.0907441687 3.0902704419 3.0875249608 3.0827550978 3.0753258427 3.0655402429 
3.0562013379 3.0472348521 3.0396174285 3.0418398571 3.2449595186 3.2465359349 3.1257308075 3.2467758874 3.1190799866 
3.1266026681 3.0889655055 3.2427308837 3.1068825744 3.1030376617 3.2451561846 3.0979505929 3.089405419 3.0902408994 
3.1134613054 3.2448652766 3.2468290705 3.0892661497 3.089817584 3.0907544625 3.0955452356 3.0227824341 3.032629922 
3.00288172 3.009075947 2.987232191 2.9960897456 3.0096843463 3.0429678964 3.0649419019 3.0470059809 3.0997070295 
3.0691538272 3.0876358191 3.1036056404 3.1146110338 3.1278151824 3.1400486611 3.1519447394 3.1607529153 3.1685624623 
3.1663724925 3.1596749229 3.1501812117 3.1415741663 3.1344501644 3.128276464 3.1218311729 3.1160504183 3.1105332184 
3.09324839 3.0894538651 3.0842091453 3.0765260523 3.0661982311 3.0561149447 3.0477794622 3.0400941067 3.0293703167 
3.1002730196 3.1247570027 3.1404126546 3.1535979956 3.1632010746 3.1750057827 3.1874236951 3.1959829217 3.208012024 
3.2213071933 3.2332619795 3.241113003 3.2455823369 3.2521544557 3.2542936723 3.2537348476 3.25299779 3.0861960274 
3.0883131168 3.0879566075 3.0856798247 3.0811185541 3.0739029915 3.064408173 3.0553512604 3.0465557595 3.0388542675 
3.0415005217 3.2532107487 3.2540285575 3.1255453971 3.254217784 3.1188952197 3.1135172626 3.0863303183 3.2490861137 
3.1066634182 3.1028927632 3.2532121685 3.0976255631 3.0874393775 3.0880301537 3.1132302409 3.2527927569 3.2526320959 
3.0875629124 3.0871325515 3.0884752638 3.0954961338 3.0222477653 3.0330320612 3.0032097329 3.0095053718 2.9875898479 
2.99642665 3.0099955086 3.0433574647 3.0654123998 3.0472025075 3.0995201735 3.0693550619 3.0880175563 3.1040433703 
3.1152861923 3.1284584079 3.1409648325 3.1529581257 3.1621781843 3.1701890526 3.1678103659 3.1603192071 3.1502866281 
3.141642303 3.1345238506 3.1283860849 3.1219238228 3.1161298174 3.1105387787 3.0932120089 3.0894169796 3.084233959 
3.0765062508 3.0662175843 3.0560171982 3.0476967321 3.0399383134 3.0296523518 3.1007959541 3.1253638604 3.1411782527 
3.1544549448 3.1641436272 3.1760212463 3.1884225966 3.1973954727 3.2097315142 3.2232706993 3.235506946 3.2445594666 
3.2498079024 3.2572200375 3.2607865985 3.2602328989 3.2603365413 3.0832881178 3.0858867493 3.0856677051 3.083469642 
3.0791200749 3.0721313513 3.0627895111 3.0539314187 3.0454524662 3.0376970965 3.040688191 3.2605773893 3.2592745561 
3.1256363702 3.2606376994 3.1189954235 3.1046142272 3.0844328187 3.2536645147 3.1067411432 3.1028683005 3.2600782642 
3.0974834982 3.0851434377 3.0854978733 3.1132219711 3.2598161281 3.2599114158 3.0845747118 3.0844723794 3.086098828 
3.0956212137 3.0220757757 3.0334204899 3.0035409459 3.0100039444 2.9879741148 2.9967634082 3.010335667 3.043789691 
3.065935051 3.0473080692 3.0997628052 3.0694270066 3.0880539703 3.1041966222 3.1156209819 3.1288646893 3.1415910683 
3.1538550874 3.1632932754 3.171735598 3.1693292927 3.1613043193 3.1508664461 3.1420472405 3.1349490332 3.128753551 
3.12244177 3.1164768788 3.1108167243 3.0933915968 3.0895811542 3.0844221259 3.0766488611 3.0664009368 3.0561460894 
3.0478275885 3.0400103957 3.0298603998 3.1014042348 3.1260300787 3.1419681858 3.1553011683 3.165074698 3.1769768827 
3.1893777959 3.198614563 3.2112056603 3.2248913473 3.237271121 3.2467450902 3.2527814997 3.2607084258 3.2645001336 
3.2654183403 3.265759578 3.0811479829 3.0841443429 3.0838418969 3.0818313335 3.0776715794 3.0709247141 3.0615262493 
3.0527195922 3.044524752 3.0367915877 3.0398555451 3.266329037 3.2632005907 3.1261566801 3.2654323384 3.1194127338 
3.1025840249 3.081465293 3.2569150393 3.1070372644 3.1031631203 3.2654724506 3.0975406041 3.0834044098 3.0834938362 
3.113485808 3.2654662575 3.2655845112 3.0826115011 3.0824344653 3.0842006042 3.0959764292 3.0221166446 3.0337937832 
3.0038239926 3.0105063137 2.988420269 2.9971021128 3.010673002 3.044275534 3.0664846755 3.0472242753 3.1001604982 
3.0692457824 3.0880173999 3.1042852632 3.1158642186 3.1291692979 3.1420046847 3.1546614157 3.1644211876 3.1730288994 
3.1708100201 3.1625679771 3.1517446653 3.142643792 3.1355687272 3.129235894 3.1230013744 3.1168985848 3.1112091784 
3.0937313008 3.0898688614 3.0847201149 3.0768799552 3.066671561 3.0563478677 3.0480345445 3.0401769956 3.0299877844 
3.102075762 3.1267283288 3.1427869017 3.1561802294 3.1659970167 3.1779204196 3.1903182546 3.199728269 3.2125199248 
3.2262703675 3.2387542229 3.2483779997 3.2547316213 3.2630621434 3.2671906979 3.2686916393 3.2694952726 3.0806679877 
3.0836320156 3.0828446829 3.0807954154 3.0766868809 3.0700966009 3.0606356898 3.0518737895 3.0438595441 3.0362375321 
3.0391756963 3.2703223788 3.2656941988 3.1267180896 3.2684187892 3.1199049344 3.1083146436 3.0807372137 3.2590301618 
3.1074429513 3.1036788507 3.2690575094 3.0978686177 3.0823393804 3.0823834457 3.1138352953 3.2691401175 3.2695330274 
3.0824915057 3.082129167 3.0834256378 3.0963547581 3.0221620635 3.0340490365 3.0040060433 3.0109957623 2.9889076446 
2.9974574202 3.0110392119 3.0448135856 3.0670525055 3.046858023 3.100535634 3.0688687009 3.0877213637 3.1042458035 
3.1159696142 3.1293374588 3.1422943433 3.1552309794 3.1656601686 3.1741027399 3.1723095401 3.164094988 3.1528520238 
3.1433437833 3.136212874 3.1297462172 3.1235795206 3.1173524183 3.1116121419 3.0940691583 3.0901613926 3.0850195521 
3.0771058238 3.0669058248 3.0565269959 3.0482055423 3.0403140919 3.030143624 3.1028594081 3.1274875008 3.1437068728 
3.1571284607 3.1669730771 3.178900004 3.1912937388 3.2008272811 3.2137861766 3.2275101086 3.2400518158 3.2497219337 
3.2561786645 3.2647399661 3.2689457701 3.2707837322 3.2719786109 3.0803458309 3.0828349215 3.081833546 3.0795437311 
3.0752985559 3.0688696095 3.0595149548 3.0508848303 3.0430359103 3.0356200956 3.0383669927 3.2726757599 3.2675215329 
3.1272787448 3.270398517 3.1203710885 3.1199497911 3.0815921307 3.2605147379 3.1078457629 3.1040376671 3.271278886 
3.0982095747 3.0810869449 3.0812469468 3.1142334945 3.2714649853 3.2717261711 3.0824429262 3.0817983251 3.0825529442 
3.0966891941 3.0221002801 3.0342174581 3.0040401079 3.0111699424 2.9893916183 2.9978321511 3.0114412854 3.045772523 
3.0678312798 3.0464230673 3.100882859 3.0684123506 3.0873185505 3.1041440255 3.1160420346 3.1293848099 3.1424535203 
3.1557128861 3.1664823311 3.1753470502 3.1741363404 3.1661753095 3.1543597585 3.1442042135 3.136888001 3.1302854925 
3.1241960624 3.1178255695 3.1120291334 3.0943753711 3.090447293 3.0852872002 3.0773221746 3.0670861146 3.0566737299 
3.0483174441 3.0404270003 3.0300864909 3.103873114 3.1284309277 3.1446442945 3.1581373769 3.1679984311 3.179949861 
3.1923573298 3.2019932623 3.2151292635 3.2287548527 3.2412720907 3.2509911207 3.2574107706 3.2659242169 3.2704127283 
3.2723489645 3.2735965158 3.0776772084 3.0802309697 3.0796102761 3.0775073223 3.0733743372 3.0672204607 3.058136953 
3.0496829415 3.0420488859 3.0348797773 3.0374861544 3.2743799038 3.2689079354 3.1278944894 3.271887294 3.1208858145 
3.1236688781 3.0790890371 3.2616961633 3.1082258593 3.1043709752 3.2728746991 3.0985493388 3.0790756595 3.0791716247 
3.1146712269 3.2730437931 3.2729249182 3.0799753221 3.0797363037 3.0801414438 3.0970784545 3.022243462 3.0344417059 
3.0040626883 3.0109469748 2.9899074447 2.998291894 3.0119299078 3.046936144 3.0690031486 3.0460089904 3.1012844765 
3.0680001675 3.0869454261 3.1040502743 3.1161268389 3.1294179666 3.1425291017 3.1561633226 3.1673320161 3.1765272578 
3.1761507228 3.168794604 3.1562492418 3.1451492827 3.1375299779 3.1307379363 3.1247409476 3.1182594569 3.1125196625 
3.0947573516 3.0908413111 3.0856040199 3.0776411692 3.0673063758 3.056885732 3.0484696901 3.0406275699 3.0298170449 
3.1052481468 3.129668157 3.1458429086 3.1593837905 3.1691999715 3.1812023399 3.1936001747 3.2033180343 3.216637491 
3.230052431 3.2425609563 3.2521989157 3.2585851889 3.2669630866 3.2715807055 3.2735582704 3.2748584885 3.0731256268 
3.0773497241 3.0771321515 3.0758970642 3.0720378008 3.0661877892 3.0573155632 3.0490090234 3.0415949693 3.0346142726 
3.0372101459 3.2757807067 3.2700437187 3.1284994633 3.2731190226 3.1214381786 3.1028833739 3.0752547454 3.2627678343 
3.1086227555 3.1047574986 3.2741184717 3.0989910022 3.0771901232 3.0772177569 3.1152071982 3.2743072477 3.2768458933 
3.0736367206 3.0768464557 3.0773171425 3.0976426597 3.0227084731 3.0345125465 3.0041830186 3.0110585624 2.9907438536 
2.9987904857 3.0125218029 3.0484196984 3.0704112495 3.045590903 3.101923036 3.0674513283 3.0864328625 3.1037525953 
3.1158469421 3.1291475647 3.1421699756 3.1564001268 3.1678824484 3.1775447888 3.1782651088 3.1718069662 3.1584875887 
3.145987716 3.1379648505 3.130921942 3.1252826848 3.1192280956 3.1133581868 3.0953486116 3.091435375 3.0860568556 
3.0781451961 3.067653917 3.0572174171 3.0487003207 3.0408873392 3.0293480864 3.1067111725 3.13111249 3.1471143142 
3.160676829 3.1705021341 3.182405329 3.1948936502 3.2047084302 3.2181166642 3.2313708841 3.2436746281 3.2536993401 
3.2599368404 3.2681279984 3.2732286724 3.2756242386 3.2768813716 3.0773049752 3.0780149903 3.0772692704 3.0762829829 
3.0725712542 3.0665429103 3.0577466644 3.0495669357 3.0420723011 3.0352240443 3.0378731142 3.2777977942 3.2712512724 
3.1289324363 3.2748366784 3.1219734983 3.0751282437 3.0760721372 3.2639703297 3.109250378 3.1053563598 3.2758722322 
3.0996537768 3.0775820024 3.0775501268 3.1162256242 3.2763019853 3.2582857793 3.0766379436 3.0777738436 3.0778220905 
3.0983197594 3.0233606814 3.0332392208 3.003232704 3.010872127 2.9905761376 2.9987329736 3.0127974478 3.0489079546 
3.071246945 3.0445536887 3.1028001366 3.0658062473 3.0850722363 3.1024880725 3.114697248 3.12821242 3.1408080683 
3.1565493304 3.1676929991 3.1783861114 3.1807788328 3.1752830365 3.1611148927 3.1469305378 3.1383215143 3.1310142462 
3.1258781768 3.120208168 3.1142798729 3.0960117811 3.0920665959 3.0865520532 3.0786282134 3.067926746 3.0574581343 
3.0487934847 3.0409973154 3.0283297549 3.1073980715 3.1320922692 3.1479702919 3.1613401993 3.1713157798 3.1832444596 
3.1958880849 3.2059085925 3.2193833349 3.2326489694 3.2455274716 3.254966166 3.2617070518 3.270090086 3.2767440142 
3.2786008758 3.2789549704 3.0853109033 3.0805379726 3.0795663571 3.0780126056 3.0739420911 3.0676873046 3.0590105846 
3.0510598401 3.0434507348 3.0366464014 3.0395400115 3.2809968675 3.2736999668 3.1295575675 3.2779546369 3.122655835 
3.0874991745 3.0815250755 3.2656346301 3.1100766035 3.1059820842 3.2787427595 3.1004410895 3.0794527229 3.0796626779 
3.1172063547 3.2787893664 3.0643332794 3.081423758 3.0808254727 3.0804098137 3.098780044 3.0236664085 3.0323715312 
3.0009600579 3.005655476 2.9898505963 2.9975356759 3.0120340252 3.0476249087 3.070784793 3.0426313503 3.1028672354 
3.0643821301 3.0837428403 3.1016479531 3.1133820288 3.1270368154 3.1393584821 3.1572295966 3.1689589425 3.1810072887 
3.1858177386 3.1800052386 3.1652440211 3.1479617293 3.1387384314 3.1325247327 3.1267307034 3.1198269268 3.1147599118 
3.0965744328 3.0926139695 3.0870024295 3.0793005095 3.0681127216 3.0574388164 3.0485547979 3.0408780605 3.0262727057 
3.1069311582 3.1321001769 3.1484415759 3.1619684404 3.1721269296 3.1839763278 3.196604505 3.2075946272 3.2215584274 
3.23540172 3.2489587151 3.2614324621 3.2658570926 3.2739334906 3.2790442404 3.2784962698 3.273983753 3.0763282363 
3.0831069739 3.0828559131 3.0809994511 3.0764480356 3.0703875646 3.0612750513 3.0533526374 3.045497604 3.0384287 
3.0419515551 3.0698269965 3.2771802306 3.1298416646 3.2792317458 3.1229362459 3.0745266366 3.0827295239 3.2692400423 
3.1102228457 3.1062106775 3.2781205725 3.1010481264 3.082175013 3.0831622009 3.1171037386 3.2771324838 3.0755662965 
3.0787361617 3.0826213012 3.083144799 3.0990429913 3.0257666383 3.0345044217 3.0046107052 3.008594336 2.9900340613 
2.9985666128 3.0138812759 3.0459268789 3.0695042799 3.0463219693 3.1030775489 3.0667875478 3.08745679 3.1024301311 
3.1155944718 3.1292872713 3.1415696937 3.1614883379 3.1832848818 3.1882945713 3.1899804035 3.1823617985 3.1649847483 
3.1503869104 3.1400561051 3.1330021827 3.1260102864 3.1180474038 3.1127217838 3.0960453743 3.0937461397 3.0877583613 
3.0784765064 3.0683381297 3.0570250763 3.0475648663 3.0391312358 3.0237759775 3.10377632 3.1317000998 3.1528261623 
3.1666190885 3.1757033976 3.1927989395 3.2017039078 3.2123817032 3.230300658 3.2426274602 3.2583497105 3.2675808424 