# vtk DataFile Version 4.2
vtk output
ASCII
DATASET POLYDATA
POINTS 7427 float
1573.87 -3230.15 0 1590.85 -3237.64 0 1604.16 -3230.15 0 
1551.09 -3213.15 0 1553.85 -3217.56 0 1627.85 -3216.8 0 
1634.35 -3213.14 0 1540.45 -3196.15 0 1664.54 -3196.14 0 
1529.8 -3179.15 0 1664.86 -3195.97 0 1694.73 -3179.14 0 
1519.16 -3162.15 0 1701.86 -3175.13 0 1724.93 -3162.14 0 
1508.52 -3145.14 0 1516.86 -3158.46 0 1738.86 -3154.29 0 
1755.12 -3145.14 0 1497.88 -3128.14 0 1775.86 -3133.45 0 
1785.31 -3128.14 0 1487.23 -3111.14 0 1812.87 -3112.62 0 
1815.5 -3111.13 0 1476.59 -3094.14 0 1479.86 -3099.36 0 
1845.69 -3094.13 0 1465.95 -3077.14 0 1849.87 -3091.78 0 
1875.88 -3077.13 0 1455.31 -3060.14 0 1886.87 -3070.94 0 
1906.07 -3060.13 0 1444.66 -3043.14 0 1923.87 -3050.11 0 
1936.27 -3043.13 0 1434.02 -3026.14 0 1442.86 -3040.26 0 
1960.87 -3032.12 0 1986.75 -3026.12 0 1423.38 -3009.14 0 
1997.88 -3024.27 0 2034.88 -3018.1 0 2071.88 -3011.94 0 
2088.78 -3009.12 0 1412.73 -2992.14 0 2108.88 -3005.77 0 
2145.88 -2999.6 0 2182.88 -2993.44 0 2190.8 -2992.12 0 
1402.09 -2975.14 0 1405.86 -2981.16 0 2219.88 -2987.27 0 
2256.89 -2981.1 0 2266.16 -2975.11 0 1391.45 -2958.14 0 
2280.59 -2958.11 0 1380.81 -2941.14 0 2287.79 -2941.11 0 
1370.16 -2924.14 0 2292.1 -2924.11 0 1339.06 -2907.13 0 
1368.86 -2923.41 0 2293.89 -2914.28 0 2295.14 -2907.11 0 
1290.92 -2890.14 0 1294.86 -2891.53 0 1331.87 -2904.59 0 
2298.09 -2890.11 0 1242.77 -2873.14 0 1257.86 -2878.46 0 
2301.05 -2873.11 0 1194.63 -2856.14 0 1220.86 -2865.4 0 
2304 -2856.11 0 1146.49 -2839.14 0 1146.86 -2839.27 0 
1183.86 -2852.33 0 2306.96 -2839.1 0 1098.34 -2822.14 0 
1109.86 -2826.2 0 2309.92 -2822.1 0 1050.2 -2805.14 0 
1072.86 -2813.14 0 2312.87 -2805.1 0 1014.83 -2788.14 0 
1035.86 -2799.95 0 2315.83 -2788.1 0 988.022 -2771.14 0 
998.864 -2778.01 0 2318.78 -2771.1 0 961.649 -2754.14 0 
961.864 -2754.55 0 2321.74 -2754.1 0 952.938 -2737.14 0 
2324.69 -2737.1 0 944.47 -2720.13 0 2327.65 -2720.1 0 
936.236 -2703.13 0 2330.61 -2703.1 0 928.225 -2686.13 0 
2330.9 -2701.38 0 2333.56 -2686.09 0 921.108 -2669.13 0 
924.867 -2678.87 0 2336.52 -2669.09 0 914.544 -2652.13 0 
2339.47 -2652.09 0 907.979 -2635.13 0 2342.43 -2635.09 0 
901.414 -2618.13 0 2345.38 -2618.09 0 894.85 -2601.13 0 
2348.34 -2601.09 0 888.285 -2584.13 0 2351.3 -2584.09 0 
881.72 -2567.13 0 887.872 -2583.06 0 2354.25 -2567.09 0 
875.156 -2550.13 0 2357.21 -2550.09 0 868.591 -2533.13 0 
2360.16 -2533.09 0 862.026 -2516.12 0 2363.12 -2516.08 0 
855.462 -2499.12 0 2366.08 -2499.08 0 848.897 -2482.12 0 
850.877 -2487.25 0 2367.92 -2488.49 0 2369.03 -2482.08 0 
842.333 -2465.12 0 2371.99 -2465.08 0 835.768 -2448.12 0 
2374.94 -2448.08 0 829.203 -2431.12 0 2377.9 -2431.08 0 
822.639 -2414.12 0 2380.85 -2414.08 0 816.074 -2397.12 0 
2383.81 -2397.08 0 809.509 -2380.12 0 813.881 -2391.44 0 
2386.77 -2380.08 0 802.945 -2363.12 0 2389.72 -2363.07 0 
796.38 -2346.12 0 2392.68 -2346.07 0 789.815 -2329.12 0 
2395.63 -2329.07 0 783.251 -2312.11 0 2398.59 -2312.07 0 
776.686 -2295.11 0 776.886 -2295.63 0 2401.54 -2295.07 0 
770.122 -2278.11 0 2404.5 -2278.07 0 763.557 -2261.11 0 
2404.93 -2275.59 0 2407.46 -2261.07 0 756.992 -2244.11 0 
2410.41 -2244.07 0 750.428 -2227.11 0 2415.48 -2227.07 0 
743.863 -2210.11 0 2426.69 -2210.06 0 737.298 -2193.11 0 
739.891 -2199.82 0 2438.25 -2193.06 0 730.785 -2176.11 0 
2441.94 -2187.63 0 2449.8 -2176.06 0 725.675 -2159.11 0 
2461.36 -2159.06 0 723.073 -2142.11 0 2472.92 -2142.06 0 
720.498 -2125.11 0 2478.94 -2133.2 0 2484.48 -2125.06 0 
717.923 -2108.1 0 2496.03 -2108.06 0 715.348 -2091.1 0 
2507.59 -2091.06 0 712.773 -2074.1 0 2515.95 -2074.76 0 
2516.12 -2074.05 0 710.198 -2057.1 0 2515.95 -2071.76 0 
2514.36 -2057.05 0 707.623 -2040.1 0 2513.23 -2040.05 0 
705.048 -2023.1 0 2512.17 -2023.05 0 702.473 -2006.1 0 
702.901 -2008.92 0 2510.85 -2006.05 0 699.898 -1989.1 0 
2509.54 -1989.05 0 697.323 -1972.1 0 2508.22 -1972.05 0 
694.748 -1955.1 0 2506.9 -1955.05 0 692.173 -1938.1 0 
2505.58 -1938.05 0 689.598 -1921.09 0 2504.27 -1921.05 0 
687.023 -1904.09 0 2502.95 -1904.04 0 684.448 -1887.09 0 
2501.63 -1887.04 0 681.873 -1870.09 0 2500.31 -1870.04 0 
679.298 -1853.09 0 2499 -1853.04 0 676.723 -1836.09 0 
2497.68 -1836.04 0 674.148 -1819.09 0 2496.36 -1819.04 0 
671.573 -1802.09 0 2495.04 -1802.04 0 668.998 -1785.09 0 
2493.73 -1785.04 0 666.396 -1768.09 0 2492.41 -1768.04 0 
665.245 -1751.08 0 665.914 -1761.83 0 2491.09 -1751.04 0 
664.185 -1734.08 0 2489.77 -1734.03 0 663.125 -1717.08 0 
2488.46 -1717.03 0 662.057 -1700.08 0 2487.14 -1700.03 0 
660.376 -1683.08 0 2485.82 -1683.03 0 658.658 -1666.08 0 
2484.5 -1666.03 0 656.94 -1649.08 0 2483.19 -1649.03 0 
653.819 -1632.08 0 2481.87 -1632.03 0 649.605 -1615.08 0 
2480.55 -1615.03 0 646.234 -1598.08 0 2479.23 -1598.03 0 
643.477 -1581.08 0 2479.07 -1581.03 0 641.18 -1564.07 0 
2480.07 -1564.03 0 -481.105 -1561.63 0 -511.221 -1547.1 0 
-444.104 -1557.14 0 -415.085 -1547.1 0 639.237 -1547.07 0 
2481.08 -1547.02 0 -518.105 -1543.79 0 -546.475 -1530.1 0 
-407.102 -1544.34 0 -370.1 -1531.53 0 -365.954 -1530.1 0 
635.659 -1530.07 0 2482.08 -1530.02 0 -555.105 -1525.94 0 
-581.73 -1513.1 0 -333.098 -1518.73 0 -316.823 -1513.1 0 
631.845 -1513.07 0 2483.09 -1513.02 0 -592.105 -1508.1 0 
-616.985 -1496.1 0 -296.097 -1505.92 0 -267.693 -1496.1 0 
627.803 -1496.07 0 628.929 -1500.07 0 2484.09 -1496.02 0 
-629.105 -1490.26 0 -652.239 -1479.1 0 -259.095 -1493.12 0 
-222.093 -1480.31 0 -218.562 -1479.09 0 623.535 -1479.07 0 
1306.42 -1479.05 0 1331.95 -1487.54 0 1368.95 -1491.48 0 
1405.95 -1492.28 0 1442.95 -1493.08 0 1479.95 -1493.88 0 
1516.95 -1494.68 0 1553.95 -1495.48 0 1586.77 -1479.04 0 
2485.1 -1479.02 0 -666.105 -1472.42 0 -687.494 -1462.1 0 
-185.091 -1467.51 0 -169.431 -1462.09 0 619.953 -1462.07 0 
1256.72 -1462.05 0 1257.95 -1462.93 0 1294.95 -1475.24 0 
1590.96 -1475.85 0 1604.36 -1462.04 0 2486.1 -1462.02 0 
-703.105 -1454.58 0 -715.055 -1445.1 0 -148.09 -1454.7 0 
-111.088 -1447.99 0 -74.0873 -1450.61 0 -65.9577 -1445.09 0 
616.59 -1445.07 0 1229.03 -1445.05 0 1620.86 -1445.04 0 
2487.11 -1445.02 0 -729.191 -1428.1 0 -45.7735 -1428.09 0 
612.776 -1428.07 0 1207.51 -1428.05 0 1220.95 -1440.92 0 
1627.96 -1437.73 0 1637.37 -1428.04 0 2488.11 -1428.02 0 
-740.103 -1413.07 0 -741.532 -1411.1 0 -37.0845 -1419.76 0 
-31.061 -1411.08 0 608.962 -1411.07 0 1189.75 -1411.05 0 
1653.87 -1411.04 0 2489.12 -1411.02 0 -753.872 -1394.1 0 
-19.9998 -1394.08 0 605.148 -1394.07 0 1171.99 -1394.05 0 
1183.95 -1405.5 0 1664.96 -1399.62 0 1670.45 -1394.04 0 
2490.12 -1394.01 0 -766.213 -1377.1 0 -8.07024 -1377.08 0 
601.334 -1377.06 0 1154.23 -1377.05 0 1686.88 -1377.04 0 
2491.13 -1377.01 0 -777.101 -1362.1 0 -778.553 -1360.1 0 
-0.0803766 -1366.48 0 4.36664 -1360.08 0 597.52 -1360.06 0 
1136.07 -1360.05 0 1146.95 -1370.08 0 1701.97 -1361.5 0 
1703.64 -1360.03 0 2492.13 -1360.01 0 -790.894 -1343.1 0 
16.1758 -1343.08 0 593.706 -1343.06 0 1115.14 -1343.05 0 
1722.73 -1343.03 0 2493.14 -1343.01 0 -803.235 -1326.1 0 
27.985 -1326.08 0 589.892 -1326.06 0 591.937 -1335.18 0 
1090.25 -1326.05 0 1109.95 -1339.24 0 1738.97 -1328.14 0 
1740.5 -1326.03 0 2493.56 -1326.01 0 -814.099 -1311.13 0 
-815.575 -1309.1 0 36.9238 -1313.21 0 39.7942 -1309.08 0 
584.354 -1309.06 0 1064.85 -1309.05 0 1072.95 -1314.47 0 
1751.25 -1309.03 0 2492.53 -1309.01 0 -827.916 -1292.1 0 
51.6035 -1292.07 0 574.589 -1292.06 0 1039.46 -1292.05 0 
1759.1 -1292.03 0 2491.73 -1292.01 0 -840.256 -1275.1 0 
63.4127 -1275.07 0 567.497 -1275.06 0 1014.07 -1275.05 0 
1035.95 -1289.7 0 1765.35 -1275.03 0 2489.52 -1275.01 0 
-851.097 -1260.16 0 -852.597 -1258.1 0 73.9279 -1259.93 0 
75.2218 -1258.07 0 561.884 -1258.06 0 992.974 -1258.05 0 
998.953 -1264.93 0 1772.7 -1258.03 0 2486.2 -1258.01 0 
-864.938 -1241.1 0 87.0311 -1241.07 0 557.273 -1241.06 0 
978.148 -1241.05 0 1775.97 -1252.75 0 1783.26 -1241.02 0 
2482.88 -1241.01 0 -877.278 -1224.1 0 98.8403 -1224.07 0 
553.19 -1224.06 0 554.943 -1231.29 0 963.247 -1224.05 0 
1793.82 -1224.02 0 2479.57 -1224.01 0 -888.095 -1209.19 0 
-889.619 -1207.09 0 110.649 -1207.07 0 549.075 -1207.06 0 
951.126 -1207.05 0 961.954 -1222.57 0 1804.38 -1207.02 0 
2479 -1221.08 0 2476.25 -1207 0 -901.96 -1190.09 0 
110.932 -1206.66 0 119.23 -1190.07 0 544.967 -1190.06 0 
939.271 -1190.04 0 1812.98 -1193.17 0 1814.93 -1190.02 0 
2473.15 -1190 0 -914.3 -1173.09 0 125.19 -1173.07 0 
540.865 -1173.05 0 927.417 -1173.04 0 1825.49 -1173.02 0 
2470.68 -1173 0 -925.093 -1158.23 0 -926.641 -1156.09 0 
128.356 -1156.06 0 536.769 -1156.05 0 916.602 -1156.04 0 
924.956 -1169.49 0 1836.05 -1156.02 0 2470.18 -1156 0 
-939.863 -1139.09 0 129.854 -1139.06 0 532.679 -1139.05 0 
907.357 -1139.04 0 1846.61 -1139.02 0 2469.67 -1139 0 
-958.313 -1122.09 0 131.353 -1122.06 0 528.596 -1122.05 0 
898.112 -1122.04 0 1849.98 -1133.59 0 1857.17 -1122.02 0 
2469.19 -1122 0 -962.092 -1118.89 0 -978.371 -1105.09 0 
132.852 -1105.06 0 524.518 -1105.05 0 888.867 -1105.04 0 
1867.73 -1105.01 0 2468.74 -1105 0 -998.429 -1088.09 0 
134.351 -1088.06 0 520.447 -1088.05 0 879.622 -1088.04 0 
887.959 -1103.37 0 1876.98 -1088.01 0 2468.3 -1088 0 
-999.091 -1087.53 0 -1010.35 -1071.09 0 135.85 -1071.06 0 
516.338 -1071.05 0 517.951 -1077.61 0 870.378 -1071.04 0 
1884.38 -1071.01 0 2467.86 -1071 0 -1014.52 -1054.09 0 
142.385 -1054.06 0 512.16 -1054.05 0 860.541 -1054.04 0 
1886.99 -1064.37 0 1890.52 -1054.01 0 2467.43 -1054 0 
-1016.96 -1037.09 0 147.943 -1040 0 149.107 -1037.06 0 
507.983 -1037.05 0 846.741 -1037.04 0 850.962 -1042.34 0 
1896.33 -1037.01 0 2467 -1036.99 0 -1019.4 -1020.09 0 
155.828 -1020.06 0 503.805 -1020.05 0 832.162 -1020.04 0 
1902.13 -1020.01 0 2466.58 -1019.99 0 -1021.84 -1003.09 0 
162.55 -1003.05 0 499.628 -1003.05 0 817.583 -1003.04 0 
1907.93 -1003.01 0 2466.16 -1002.99 0 -1024.28 -986.086 0 
169.272 -986.053 0 495.648 -986.045 0 803.003 -986.036 0 
813.963 -998.816 0 1913.73 -986.006 0 2465.76 -985.991 0 
-1026.73 -969.085 0 175.993 -969.052 0 493.349 -969.044 0 
[...]
POINT_DATA 7427
SCALARS Pressure double
LOOKUP_TABLE default
3.0932710339 3.0932710339 3.0932710339 3.0932710339 3.0932710339 3.0932710339 3.0932710339 3.0932710339 3.0932710339 
3.0932710339 3.0932710339 3.0932710339 3.0932710339 3.0932710339 3.0932710339 3.0932710339 3.0932710339 3.0932710339 
3.0932710339 3.0932710339 3.0932710339 3.0932710339 3.0932710339 3.0932710339 3.0932710339 3.0932710339 3.0932710339 
3.0932710339 3.0932710339 3.0932710339 3.0932710339 3.0932710339 3.0932710339 3.0932710339 3.0932710339 3.0932710339 
3.0932710339 3.0932710339 3.0932710339 3.0932710339 3.0932710339 3.0932710339 3.0932710339 3.0932710339 3.0932710339 
3.0932710339 3.0932710339 3.0932710339 3.0932710339 3.0932710339 3.0932710339 3.0932710339 3.0932710339 3.0932710339 
3.0932710339 3.0932710339 3.0932710339 3.0932710339 3.0932710339 3.0932710339 3.0932710339 3.0932710339 3.0932710339 
3.0932710339 3.0932710339 3.0932710339 3.0932710339 3.0932710339 3.0932710339 3.0932710339 3.0932710339 3.0932710339 
3.0932710339 3.0932710339 3.0932710339 3.0932710339 3.0932710339 3.0932710339 3.0932710339 3.0932710339 3.0932710339 
3.0932710339 3.0932710339 3.0932710339 3.0932710339 3.0932710339 3.0932710339 3.0932710339 3.0932710339 3.0932710339 
3.0932710339 3.0932710339 3.0932710339 3.0932710339 3.0932710339 3.0932710339 3.0932710339 3.0932710339 3.0932710339 
3.0932710339 3.0932710339 3.0932710339 3.0932710339 3.0932710339 3.0932710339 3.0932710339 3.0932710339 3.0932710339 
3.0932710339 3.0932710339 3.0932710339 3.0932710339 3.0932710339 3.0932710339 3.0932710339 3.0932710339 3.0932710339 
3.0932710339 3.0932710339 3.0932710339 3.0932710339 3.0932710339 3.0932710339 3.0932710339 3.0932710339 3.0932710339 
3.0932710339 3.0932710339 3.0932710339 3.0932710339 3.0932710339 3.0932710339 3.0932710339 3.0932710339 3.0932710339 
3.0932710339 3.0932710339 3.0932710339 3.0932710339 3.0932710339 3.0932710339 3.0932710339 3.0932710339 3.0932710339 
3.0932710339 3.0932710339 3.0932710339 3.0932710339 3.0932710339 3.0932710339 3.0932710339 3.0932710339 3.0932710339 
3.0932710339 3.0932710339 3.0932710339 3.0932710339 3.0932710339 3.0932710339 3.0932710339 3.0932710339 3.0932710339 
3.0932710339 3.0932710339 3.0932710339 3.0932710339 3.0932710339 3.0932710339 3.0932710339 3.0932710339 3.0932710339 
3.0932710339 3.0932710339 3.0932710339 3.0932710339 3.0932710339 3.0932710339 3.0932710339 3.0932710339 3.0932710339 
3.0932710339 3.0932710339 3.0932710339 3.0932710339 3.0932710339 3.0932710339 3.0932710339 3.0932710339 3.0932710339 
3.0932710339 3.0932710339 3.0932710339 3.0932710339 3.0932710339 3.0932710339 3.0932710339 3.0932710339 3.0932710339 
3.0932710339 3.0932710339 3.0932710339 3.0932710339 3.0932710339 3.0932710339 3.0932710339 3.0932710339 3.0932710339 
3.0932710339 3.0932710339 3.0932710339 3.0932710339 3.0932710339 3.0932710339 3.0932710339 3.0932710339 3.0932710339 
3.0932710339 3.0932710339 3.0932710339 3.0932710339 3.0932710339 3.0932710339 3.0932710339 3.0932710339 3.0932710339 
3.0932710339 3.0932710339 3.0932710339 3.0932710339 3.0932710339 3.0932710339 3.0932710339 3.0932710339 3.0932710339 
3.0932710339 3.0932710339 3.0932710339 3.0932710339 3.0932710339 3.0932710339 3.0932710339 3.0932710339 3.0932710339 
3.0932710339 3.0932710339 3.0932710339 3.0932710339 3.0932710339 3.0932710339 3.0932710339 3.0786768432 3.0786768432 
3.0786768432 3.0786768432 3.0932710339 3.0932710339 3.0786768432 3.0786768432 3.0786768432 3.0786768432 3.0786768432 
3.0932710339 3.0932710339 3.0786768432 3.0786768432 3.0786768432 3.0786768432 3.0932710339 3.0932710339 3.0786768432 
3.0786768432 3.0786768432 3.0786768432 3.0932710339 3.0932710339 3.0932710339 3.0786768432 3.0786768432 3.0786768432 
3.0786768432 3.0786768432 3.0932710339 3.1078652246 3.1078652246 3.1078652246 3.1078652246 3.1078652246 3.1078652246 
3.1078652246 3.1078652246 3.1078652246 3.0932710339 3.0786768432 3.0786768432 3.0786768432 3.0786768432 3.0932710339 
3.1078652246 3.1078652246 3.1078652246 3.1078652246 3.1078652246 3.0932710339 3.0786768432 3.0786768432 3.0786768432 
3.0786768432 3.0786768432 3.0786768432 3.0932710339 3.1078652246 3.1078652246 3.0932710339 3.0786768432 3.0786768432 
3.0932710339 3.1078652246 3.1078652246 3.1078652246 3.1078652246 3.0932710339 3.0786768432 3.0786768432 3.0786768432 
3.0786768432 3.0932710339 3.1078652246 3.1078652246 3.0932710339 3.0786768432 3.0786768432 3.0932710339 3.1078652246 
3.1078652246 3.1078652246 3.1078652246 3.0932710339 3.0786768432 3.0786768432 3.0932710339 3.1078652246 3.1078652246 
3.0932710339 3.0786768432 3.0786768432 3.0786768432 3.0786768432 3.0932710339 3.1078652246 3.1078652246 3.1078652246 
3.1078652246 3.0932710339 3.0786768432 3.0786768432 3.0932710339 3.1078652246 3.1078652246 3.0932710339 3.0786768432 
3.0786768432 3.0932710339 3.0932710339 3.1078652246 3.1078652246 3.1078652246 3.1078652246 3.0932710339 3.0786768432 
3.0786768432 3.0786768432 3.0786768432 3.0932710339 3.1078652246 3.1078652246 3.1078652246 3.0932710339 3.0786768432 
3.0786768432 3.0932710339 3.1078652246 3.1078652246 3.0932710339 3.0786768432 3.0786768432 3.0932710339 3.1078652246 
3.1078652246 3.1078652246 3.0932710339 3.0786768432 3.0786768432 3.0786768432 3.0786768432 3.0932710339 3.1078652246 
3.1078652246 3.1078652246 3.0932710339 3.0786768432 3.0786768432 3.0932710339 3.1078652246 3.1078652246 3.1078652246 
3.0932710339 3.0786768432 3.0786768432 3.0932710339 3.0932710339 3.1078652246 3.1078652246 3.0932710339 3.0786768432 
3.0786768432 3.0786768432 3.0932710339 3.1078652246 3.1078652246 3.1078652246 3.0932710339 3.0932710339 3.0786768432 
3.0786768432 3.0786768432 3.0932710339 3.1078652246 3.1078652246 3.1078652246 3.0932710339 3.0786768432 3.0786768432 
3.0932710339 3.1078652246 3.1078652246 3.0932710339 3.0786768432 3.0786768432 3.0786768432 3.0932710339 3.1078652246 
3.1078652246 3.1078652246 3.0932710339 3.0786768432 3.0786768432 3.0932710339 3.1078652246 3.1078652246 3.0932710339 
3.0786768432 3.0786768432 3.0932710339 3.1078652246 3.1078652246 3.1078652246 3.0932710339 3.0786768432 3.0786768432 
3.0786768432 3.0932710339 3.1078652246 3.1078652246 3.0932710339 3.0786768432 3.0786768432 3.0932710339 3.1078652246 
3.1078652246 3.1078652246 3.0932710339 3.0786768432 3.0786768432 3.0786768432 3.0932710339 3.0932710339 3.1078652246 
3.1078652246 3.0932710339 3.0786768432 3.0786768432 3.0932710339 3.1078652246 3.1078652246 3.1078652246 3.0932710339 
3.0786768432 3.0786768432 3.0786768432 3.0932710339 3.1078652246 3.1078652246 3.1078652246 3.0932710339 3.0786768432 
3.0786768432 3.0932710339 3.1078652246 3.1078652246 3.0932710339 3.0786768432 3.0786768432 3.0932710339 3.1078652246 
3.1078652246 3.0932710339 3.0786768432 3.0786768432 3.0932710339 3.1078652246 3.1078652246 3.1078652246 3.0932710339 
3.0786768432 3.0786768432 3.0932710339 3.1078652246 3.1078652246 3.0932710339 3.0786768432 3.0786768432 3.0932710339 
3.1078652246 3.1078652246 3.1078652246 3.1078652246 3.0932710339 3.0786768432 3.0786768432 3.0786768432 3.0932710339 
3.1078652246 3.1078652246 3.0932710339 3.0786768432 3.0786768432 3.0932710339 3.1078652246 3.1078652246 3.0932710339 
3.0786768432 3.0786768432 3.0786768432 3.0932710339 3.0932710339 3.1078652246 3.1078652246 3.0932710339 3.0786768432 
3.0786768432 3.0932710339 3.1078652246 3.1078652246 3.1078652246 3.0932710339 3.0786768432 3.0786768432 3.0932710339 
3.1078652246 3.1078652246 3.1078652246 3.0932710339 3.0786768432 3.0786768432 3.0932710339 3.1078652246 3.1224594153 
3.1224594153 3.1224594153 3.1224594153 3.1078652246 3.0932710339 3.0786768432 3.0786768432 3.0932710339 3.1078652246 
3.1224594153 3.1224594153 3.1224594153 3.1224594153 3.1224594153 3.1224594153 3.1224594153 3.1078652246 3.0932710339 
3.0786768432 3.0786768432 3.0932710339 3.1078652246 3.1078652246 3.1224594153 3.1224594153 3.1224594153 3.1224594153 
3.1224594153 3.1078652246 3.0932710339 3.0786768432 3.0786768432 3.0932710339 3.1078652246 3.1224594153 3.1224594153 
3.1224594153 3.1078652246 3.0932710339 3.0786768432 3.0786768432 3.0786768432 3.0786768432 3.0786768432 3.0932710339 
3.0932710339 3.1078652246 3.1224594153 3.1224594153 3.1224594153 3.1078652246 3.0932710339 3.0786768432 3.0786768432 
3.0786768432 3.0786768432 3.0786768432 3.0786768432 3.0932710339 3.1078652246 3.1078652246 3.1224594153 3.1224594153 
3.1224594153 3.1078652246 3.0932710339 3.0786768432 3.0786768432 3.0786768432 3.0786768432 3.0786768432 3.0786768432 
3.0932710339 3.1078652246 3.1224594153 3.1224594153 3.1224594153 3.1078652246 3.1078652246 3.0932710339 3.0786768432 
3.0786768432 3.0786768432 3.0786768432 3.0786768432 3.0786768432 3.0640826525 3.0640826525 3.0640826525 3.0640826525 
3.0640826525 3.0640826525 3.0786768432 3.0932710339 3.1078652246 3.1224594153 3.1224594153 3.1224594153 3.1078652246 
3.0932710339 3.0786768432 3.0786768432 3.0786768432 3.0786768432 3.0786768432 3.0640826525 3.0640826525 3.0640826525 
3.0640826525 3.0640826525 3.0786768432 3.0786768432 3.0932710339 3.1078652246 3.1224594153 3.1224594153 3.1224594153 
3.1078652246 3.0932710339 3.0786768432 3.0786768432 3.0786768432 3.0786768432 3.0786768432 3.0640826525 3.0640826525 
3.0640826525 3.0786768432 3.0932710339 3.1078652246 3.1078652246 3.1224594153 3.1224594153 3.1224594153 3.1078652246 
3.0932710339 3.0786768432 3.0786768432 3.0786768432 3.0786768432 3.0640826525 3.0640826525 3.0640826525 3.0786768432 
3.0932710339 3.1078652246 3.1224594153 3.1224594153 3.1224594153 3.1224594153 3.1078652246 3.0932710339 3.0786768432 
3.0786768432 3.0786768432 3.0786768432 3.0640826525 3.0640826525 3.0640826525 3.0786768432 3.0932710339 3.1078652246 
3.1224594153 3.1224594153 3.1078652246 3.0932710339 3.0786768432 3.0786768432 3.0786768432 3.0786768432 3.0786768432 
3.0640826525 3.0640826525 3.0640826525 3.0786768432 3.0932710339 3.1078652246 3.1224594153 3.1224594153 3.1224594153 
3.1078652246 3.0932710339 3.0786768432 3.0786768432 3.0786768432 3.0786768432 3.0786768432 3.0640826525 3.0640826525 
3.0640826525 3.0786768432 3.0932710339 3.1078652246 3.1224594153 3.1224594153 3.1078652246 3.1078652246 3.0932710339 
3.0786768432 3.0786768432 3.0786768432 3.0786768432 3.0640826525 3.0640826525 3.0786768432 3.0932710339 3.1078652246 
3.1224594153 3.1224594153 3.1224594153 3.1224594153 3.1078652246 3.0932710339 3.0786768432 3.0786768432 3.0786768432 
3.0640826525 3.0640826525 3.0640826525 3.0640826525 3.0786768432 3.0932710339 3.0932710339 3.1078652246 3.1078652246 
3.1224594153 3.1224594153 3.1078652246 3.0932710339 3.0786768432 3.0786768432 3.0786768432 3.0640826525 3.0640826525 
3.0786768432 3.0932710339 3.1078652246 3.1224594153 3.1224594153 3.1078652246 3.0932710339 3.0786768432 3.0786768432 
3.0786768432 3.0786768432 3.0640826525 3.0640826525 3.0640826525 3.0640826525 3.0786768432 3.0932710339 3.1078652246 
3.1224594153 3.1224594153 3.1224594153 3.1078652246 3.0932710339 3.0786768432 3.0786768432 3.0786768432 3.0640826525 
3.0640826525 3.0786768432 3.0932710339 3.1078652246 3.1224594153 3.1224594153 3.1224594153 3.1078652246 3.0932710339 
3.0786768432 3.0786768432 3.0786768432 3.0786768432 3.0640826525 3.0640826525 3.0786768432 3.0932710339 3.1078652246 
3.1078652246 3.1224594153 3.1224594153 3.1224594153 3.1078652246 3.0932710339 3.0786768432 3.0786768432 3.0786768432 
3.0640826525 3.0640826525 3.0786768432 3.0932710339 3.1078652246 3.1224594153 3.1224594153 3.1078652246 3.0932710339 
3.0786768432 3.0786768432 3.0786768432 3.0786768432 3.0640826525 3.0640826525 3.0786768432 3.0932710339 3.1078652246 
3.1224594153 3.1224594153 3.137053606 3.137053606 3.137053606 3.137053606 3.1224594153 3.1078652246 3.0932710339 
3.0786768432 3.0786768432 3.0786768432 3.0640826525 3.0640826525 3.0640826525 3.0786768432 3.0932710339 3.1078652246 
3.1078652246 3.1224594153 3.137053606 3.137053606 3.137053606 3.137053606 3.1224594153 3.1224594153 3.1078652246 
3.1078652246 3.0932710339 3.0932710339 3.0786768432 3.0786768432 3.0786768432 3.0786768432 3.0640826525 3.0640826525 
3.0640826525 3.0786768432 3.0932710339 3.0932710339 3.1078652246 3.1224594153 3.137053606 3.137053606 3.137053606 
3.1224594153 3.1078652246 3.0932710339 3.0786768432 3.0786768432 3.0786768432 3.0640826525 3.0640826525 3.0786768432 
3.0932710339 3.1078652246 3.1224594153 3.1224594153 3.137053606 3.137053606 3.137053606 3.1224594153 3.1078652246 
3.0932710339 3.0786768432 3.0786768432 3.0786768432 3.0786768432 3.0640826525 3.0494884618 3.0494884618 3.0494884618 
3.0494884618 3.0640826525 3.0786768432 3.0932710339 3.1078652246 3.1224594153 3.137053606 3.137053606 3.137053606 
3.137053606 3.1224594153 3.1078652246 3.0932710339 3.0786768432 3.0786768432 3.0786768432 3.0786768432 3.0640826525 
3.0494884618 3.0494884618 3.0494884618 3.0494884618 3.0494884618 3.0640826525 3.0786768432 3.0932710339 3.1078652246 
3.1078652246 3.1224594153 3.137053606 3.137053606 3.137053606 3.1224594153 3.1078652246 3.0932710339 3.0786768432 
3.0786768432 3.0786768432 3.0640826525 3.0640826525 3.0494884618 3.0494884618 3.0494884618 3.0640826525 3.0786768432 
3.0932710339 3.1078652246 3.1224594153 3.1224594153 3.137053606 3.137053606 3.1224594153 3.1078652246 3.0932710339 
3.0786768432 3.0786768432 3.0786768432 3.0786768432 3.0640826525 3.0494884618 3.0494884618 3.0494884618 3.0640826525 
3.0786768432 3.0932710339 3.0932710339 3.1078652246 3.1224594153 3.137053606 3.137053606 3.137053606 3.137053606 
3.1224594153 3.1078652246 3.0932710339 3.0786768432 3.0786768432 3.0786768432 3.0786768432 3.0640826525 3.0494884618 
3.0494884618 3.0494884618 3.0640826525 3.0786768432 3.0932710339 3.1078652246 3.1078652246 3.1224594153 3.137053606 
3.137053606 3.137053606 3.1224594153 3.1078652246 3.0932710339 3.0786768432 3.0786768432 3.0786768432 3.0640826525 
3.0494884618 3.0494884618 3.0640826525 3.0786768432 3.0932710339 3.1078652246 3.1224594153 3.1224594153 3.137053606 
3.137053606 3.1224594153 3.1078652246 3.0932710339 3.0786768432 3.0786768432 3.0786768432 3.0640826525 3.0494884618 
3.0494884618 3.0494884618 3.0640826525 3.0786768432 3.0786768432 3.0932710339 3.1078652246 3.1224594153 3.137053606 
3.137053606 3.137053606 3.1224594153 3.1078652246 3.0932710339 3.0786768432 3.0786768432 3.0786768432 3.0786768432 
3.0640826525 3.0494884618 3.0494884618 3.0494884618 3.0640826525 3.0786768432 3.0932710339 3.1078652246 3.1224594153 
3.137053606 3.137053606 3.137053606 3.1224594153 3.1224594153 3.1078652246 3.0932710339 3.0786768432 3.0786768432 
3.0786768432 3.0786768432 3.0786768432 3.0640826525 3.0494884618 3.0494884618 3.0640826525 3.0786768432 3.0932710339 
3.0932710339 3.1078652246 3.1078652246 3.1224594153 3.137053606 3.137053606 3.1224594153 3.1078652246 3.0932710339 
3.0786768432 3.0786768432 3.0786768432 3.0640826525 3.0494884618 3.0494884618 3.0494884618 3.0640826525 3.0786768432 
3.0932710339 3.1078652246 3.1224594153 3.1224594153 3.137053606 3.137053606 3.1224594153 3.1078652246 3.0932710339 
3.0932710339 3.0786768432 3.0786768432 3.0786768432 3.0786768432 3.0640826525 3.0640826525 3.0494884618 3.0348942711 
3.0348942711 3.0348942711 3.0348942711 3.0494884618 3.0640826525 3.0786768432 3.0932710339 3.1078652246 3.1224594153 
3.137053606 3.137053606 3.137053606 3.137053606 3.1224594153 3.1224594153 3.1078652246 3.1078652246 3.0932710339 
3.0786768432 3.0786768432 3.0786768432 3.0786768432 3.0640826525 3.0494884618 3.0348942711 3.0348942711 3.0348942711 
3.0348942711 3.0494884618 3.0640826525 3.0786768432 3.0932710339 3.1078652246 3.1224594153 3.137053606 3.137053606 
3.1224594153 3.1078652246 3.0932710339 3.0786768432 3.0640826525 3.0640826525 3.0640826525 3.0640826525 3.0640826525 
3.0640826525 3.0786768432 3.0786768432 3.0786768432 3.0786768432 3.0786768432 3.0640826525 3.0494884618 3.0348942711 
3.0348942711 3.0348942711 3.0494884618 3.0494884618 3.0640826525 3.0786768432 3.0932710339 3.1078652246 3.1078652246 
3.1224594153 3.137053606 3.137053606 3.1224594153 3.1078652246 3.0932710339 3.0786768432 3.0786768432 3.0640826525 
3.0640826525 3.0640826525 3.0786768432 3.0786768432 3.0786768432 3.0786768432 3.0786768432 3.0640826525 3.0494884618 
3.0348942711 3.0348942711 3.0348942711 3.0494884618 3.0640826525 3.0786768432 3.0932710339 3.1078652246 3.1224594153 
3.137053606 3.137053606 3.137053606 3.1224594153 3.1078652246 3.0932710339 3.0786768432 3.0640826525 3.0640826525 
3.0640826525 3.0786768432 3.0786768432 3.0786768432 3.0786768432 3.0640826525 3.0494884618 3.0348942711 3.0348942711 
3.0494884618 3.0640826525 3.0786768432 3.0932710339 3.1078652246 3.1224594153 3.137053606 3.137053606 3.137053606 
3.1224594153 3.1078652246 3.0932710339 3.0786768432 3.0640826525 3.0640826525 3.0640826525 3.0640826525 3.0786768432 
3.0786768432 3.0786768432 3.0640826525 3.0494884618 3.0348942711 3.0348942711 3.0348942711 3.0494884618 3.0640826525 
3.0786768432 3.0786768432 3.0932710339 3.1078652246 3.1224594153 2.9473291268 2.9473291268 2.9619233175 2.9619233175 
2.9765175082 2.9765175082 2.991111699 2.991111699 3.0057058897 3.0057058897 3.0203000804 3.0203000804 3.0348942711 
3.0348942711 3.0494884618 3.0494884618 3.0640826525 3.0640826525 3.0786768432 3.0786768432 3.0932710339 3.0932710339 
3.1078652246 3.1078652246 3.1224594153 3.1224594153 3.137053606 2.9473291268 2.9619233175 2.9765175082 2.991111699 
3.0057058897 3.0203000804 3.0348942711 3.0494884618 3.0640826525 3.0786768432 3.0932710339 3.1078652246 3.1224594153 
3.137053606 2.9473291268 2.9619233175 2.9765175082 2.991111699 3.0057058897 3.0203000804 3.0348942711 3.0494884618 
3.0640826525 3.0786768432 3.0932710339 3.1078652246 3.1224594153 3.137053606 2.9473291268 2.9619233175 2.9765175082 
2.991111699 3.0057058897 3.0203000804 3.0348942711 3.0494884618 3.0640826525 3.0786768432 3.0932710339 3.1078652246 
3.1224594153 3.137053606 2.9473291268 2.9619233175 2.9765175082 2.991111699 3.0057058897 3.0203000804 3.0348942711 
3.0494884618 3.0640826525 3.0786768432 3.0932710339 3.1078652246 3.1224594153 3.137053606 2.9473291268 2.9619233175 
2.9765175082 2.991111699 3.0057058897 3.0203000804 3.0348942711 3.0494884618 3.0640826525 3.0786768432 3.0932710339 
3.1078652246 3.1224594153 3.137053606 2.9473291268 2.9619233175 2.9765175082 2.991111699 3.0057058897 3.0203000804 
3.0348942711 3.0494884618 3.0640826525 3.0786768432 3.0932710339 3.1078652246 3.1224594153 3.137053606 2.9473291268 
2.9619233175 2.9765175082 2.991111699 3.0057058897 3.0203000804 3.0348942711 3.0494884618 3.0640826525 3.0786768432 
3.0932710339 3.1078652246 3.1224594153 3.137053606 2.9473291268 2.9619233175 2.9765175082 2.991111699 3.0057058897 
3.0203000804 3.0348942711 3.0494884618 3.0640826525 3.0786768432 3.0932710339 3.1078652246 3.1224594153 3.137053606 
2.9473291268 2.9619233175 2.9765175082 2.991111699 3.0057058897 3.0203000804 3.0348942711 3.0494884618 3.0640826525 
3.0786768432 3.0932710339 3.1078652246 3.1224594153 3.137053606 3.137053606 3.1224594153 3.1078652246 3.0932710339 
3.0786768432 3.0640826525 3.0640826525 3.0786768432 3.0786768432 3.0640826525 3.0494884618 3.0494884618 3.0348942711 
3.0203000804 3.0203000804 3.0203000804 3.0203000804 3.0203000804 3.0348942711 3.0348942711 3.0494884618 3.0640826525 
3.0786768432 3.0932710339 3.1078652246 2.9473291268 2.9473291268 2.9619233175 2.9619233175 2.9765175082 2.9765175082 
2.991111699 2.991111699 3.0057058897 3.0057058897 3.0203000804 3.0203000804 3.0348942711 3.0348942711 3.0494884618 
3.0494884618 3.0640826525 3.0640826525 3.0786768432 3.0786768432 3.0932710339 3.0932710339 3.1078652246 3.1078652246 
2.9473291268 2.9619233175 2.9765175082 2.991111699 3.0057058897 3.0203000804 3.0348942711 3.0494884618 3.0640826525 
3.0786768432 3.0932710339 3.1078652246 2.9473291268 2.9619233175 2.9765175082 2.991111699 3.0057058897 3.0203000804 
3.0348942711 3.0494884618 3.0640826525 3.0786768432 3.0932710339 3.1078652246 2.9473291268 2.9619233175 2.9765175082 
2.991111699 3.0057058897 3.0203000804 3.0348942711 3.0494884618 3.0640826525 3.0786768432 3.0932710339 3.1078652246 