# vtk DataFile Version 4.2
vtk output
ASCII
DATASET POLYDATA
POINTS 16324 float
-4108.88 -3250.39 5800 -4109.89 -3237.39 5800 1863.14 -3237.18 5800 
1862.45 -3250.19 5800 3489.87 -3250.13 5800 3492.07 -3237.13 5800 
-4110.56 -3224.39 5800 1863.83 -3224.18 5800 3494.02 -3224.13 5800 
-4111.04 -3211.39 5800 1864.52 -3211.18 5800 3495.7 -3211.13 5800 
-4111.39 -3198.39 5800 1865.21 -3198.18 5800 3497.21 -3198.13 5800 
-4113.09 -3185.39 5800 1865.89 -3185.18 5800 3498.72 -3185.12 5800 
-4116.01 -3172.39 5800 1866.58 -3172.18 5800 3500.22 -3172.12 5800 
-4118.39 -3161.81 5800 -4119.11 -3159.39 5800 1867.27 -3159.18 5800 
3501.73 -3159.12 5800 -4122.36 -3146.38 5800 1867.96 -3146.18 5800 
3503.23 -3146.12 5800 -4124.77 -3133.38 5800 1868.65 -3133.18 5800 
3504.74 -3133.12 5800 -4127.69 -3120.38 5800 1869.34 -3120.18 5800 
3506.24 -3120.12 5800 -4130.61 -3107.38 5800 1870.03 -3107.17 5800 
3507.75 -3107.12 5800 -4133.53 -3094.38 5800 1870.72 -3094.17 5800 
3508.88 -3097.34 5800 3509.26 -3094.12 5800 -4136.45 -3081.38 5800 
1868.51 -3081.17 5800 3510.76 -3081.12 5800 -4139.37 -3068.38 5800 
1866.36 -3068.17 5800 3512.27 -3068.11 5800 -4142.29 -3055.38 5800 
1864.93 -3055.17 5800 3513.77 -3055.11 5800 -4145.21 -3042.38 5800 
1863.14 -3042.17 5800 3515.28 -3042.11 5800 -4147.38 -3032.75 5800 
-4148.13 -3029.38 5800 1859.09 -3029.17 5800 3516.78 -3029.11 5800 
-4151.05 -3016.38 5800 1854.85 -3016.17 5800 1855.83 -3018.73 5800 
3518.29 -3016.11 5800 -4153.97 -3003.37 5800 1850.81 -3003.17 5800 
3519.8 -3003.11 5800 -4156.89 -2990.37 5800 1846.93 -2990.17 5800 
3521.3 -2990.11 5800 -4159.81 -2977.37 5800 1842.88 -2977.17 5800 
3522.81 -2977.11 5800 -4162.74 -2964.37 5800 1838.83 -2964.16 5800 
3524.31 -2964.11 5800 -4165.66 -2951.37 5800 1834.78 -2951.16 5800 
3525.82 -2951.11 5800 -4168.58 -2938.37 5800 1830.72 -2938.16 5800 
3527.33 -2938.1 5800 -4171.5 -2925.37 5800 1826.67 -2925.16 5800 
1826.84 -2925.69 5800 3528.83 -2925.1 5800 -4174.42 -2912.37 5800 
1822.19 -2912.16 5800 3530.34 -2912.1 5800 -4176.37 -2903.68 5800 
-4177.34 -2899.37 5800 1807.11 -2899.16 5800 3531.84 -2899.1 5800 
-4180.26 -2886.37 5800 1794.89 -2886.16 5800 1797.84 -2892.87 5800 
3533.59 -2886.1 5800 -4183.18 -2873.37 5800 1795.5 -2873.16 5800 
3535.5 -2873.1 5800 -4186.1 -2860.36 5800 1796.6 -2860.16 5800 
3537.9 -2861.7 5800 3538.25 -2860.1 5800 -4189.02 -2847.36 5800 
1797.68 -2847.16 5800 3540.98 -2847.1 5800 -4191.94 -2834.36 5800 
1797.84 -2845.09 5800 1798.65 -2834.16 5800 3543.71 -2834.1 5800 
-4194.86 -2821.36 5800 1799.61 -2821.16 5800 3546.45 -2821.09 5800 
-4197.78 -2808.36 5800 1800.57 -2808.15 5800 3549.18 -2808.09 5800 
-4200.7 -2795.36 5800 1801.53 -2795.15 5800 3551.92 -2795.09 5800 
-4203.62 -2782.36 5800 1802.49 -2782.15 5800 3554.66 -2782.09 5800 
-4205.36 -2774.62 5800 -4206.54 -2769.36 5800 1803.45 -2769.15 5800 
3557.39 -2769.09 5800 -4209.46 -2756.36 5800 1804.41 -2756.15 5800 
3560.13 -2756.09 5800 -4212.38 -2743.36 5800 1805.37 -2743.15 5800 
3562.87 -2743.09 5800 -4215.3 -2730.36 5800 1806.33 -2730.15 5800 
3565.6 -2730.09 5800 -4218.22 -2717.35 5800 1807.29 -2717.15 5800 
3566.91 -2723.85 5800 3568.34 -2717.09 5800 -4221.14 -2704.35 5800 
1808.25 -2704.15 5800 3571.07 -2704.08 5800 -4224.06 -2691.35 5800 
1809.21 -2691.14 5800 3573.81 -2691.08 5800 -4226.98 -2678.35 5800 
1810.17 -2678.14 5800 3576.55 -2678.08 5800 -4229.9 -2665.35 5800 
1811.14 -2665.14 5800 3579.28 -2665.08 5800 -4232.82 -2652.35 5800 
1812.1 -2652.14 5800 3582.02 -2652.08 5800 -4234.35 -2645.56 5800 
-4235.74 -2639.35 5800 1813.06 -2639.14 5800 3584.76 -2639.08 5800 
-4238.66 -2626.35 5800 1814.02 -2626.14 5800 3587.49 -2626.08 5800 
-4241.58 -2613.35 5800 1814.98 -2613.14 5800 3590.23 -2613.08 5800 
-4244.51 -2600.35 5800 1815.94 -2600.14 5800 3592.96 -2600.08 5800 
-4247.43 -2587.35 5800 1816.9 -2587.14 5800 3591.31 -2587.08 5800 
-4250.35 -2574.34 5800 1817.86 -2574.14 5800 3583.55 -2574.07 5800 
-4253.27 -2561.34 5800 1818.82 -2561.13 5800 3574.74 -2561.07 5800 
-4256.19 -2548.34 5800 1819.78 -2548.13 5800 3566.93 -2550.02 5800 
3565.55 -2548.07 5800 -4259.32 -2535.34 5800 1820.74 -2535.13 5800 
3556.35 -2535.07 5800 -4262.95 -2522.34 5800 1821.7 -2522.13 5800 
3547.15 -2522.07 5800 -4263.34 -2520.94 5800 -4266.58 -2509.34 5800 
1822.66 -2509.13 5800 3537.96 -2509.07 5800 -4270.21 -2496.34 5800 
1823.62 -2496.13 5800 3537.93 -2509.03 5800 3528.76 -2496.07 5800 
-4273.84 -2483.34 5800 1824.58 -2483.13 5800 3519.56 -2483.07 5800 
-4277.48 -2470.34 5800 1825.55 -2470.13 5800 3510.36 -2470.07 5800 
-4281.11 -2457.34 5800 1826.5 -2457.13 5800 3508.93 -2468.04 5800 
3501.17 -2457.07 5800 -4284.74 -2444.34 5800 1826.87 -2452.07 5800 
1827.46 -2444.13 5800 3491.97 -2444.07 5800 -4288.37 -2431.33 5800 
1828.45 -2431.12 5800 3482.77 -2431.07 5800 -4292.01 -2418.33 5800 
1829.51 -2418.12 5800 3479.93 -2427.05 5800 3473.57 -2418.07 5800 
-4292.33 -2417.16 5800 -4295.64 -2405.33 5800 1830.57 -2405.12 5800 
3464.38 -2405.07 5800 -4299.27 -2392.33 5800 1831.62 -2392.12 5800 
3455.18 -2392.06 5800 -4302.9 -2379.33 5800 1832.67 -2379.12 5800 
3450.94 -2386.06 5800 3445.98 -2379.06 5800 -4306.53 -2366.33 5800 
1833.73 -2366.12 5800 3436.79 -2366.06 5800 -4310.17 -2353.33 5800 
1834.79 -2353.12 5800 3427.59 -2353.06 5800 -4313.8 -2340.33 5800 
1835.85 -2340.12 5800 3421.94 -2345.07 5800 3419.12 -2340.06 5800 
-4317.43 -2327.33 5800 1836.91 -2327.12 5800 3413.88 -2327.06 5800 
-4321.06 -2314.33 5800 1837.96 -2314.11 5800 3413.68 -2314.06 5800 
-4321.33 -2313.38 5800 -4324.69 -2301.33 5800 1839.02 -2301.11 5800 
3413.8 -2301.06 5800 -4328.33 -2288.33 5800 1840.08 -2288.11 5800 
3413.92 -2288.06 5800 -4331.96 -2275.32 5800 1841.14 -2275.11 5800 
3414.04 -2275.06 5800 -4335.38 -2262.32 5800 1842.2 -2262.11 5800 
3414.16 -2262.06 5800 -4338.77 -2249.32 5800 1843.26 -2249.11 5800 
3414.28 -2249.06 5800 -4342.08 -2236.32 5800 1844.32 -2236.11 5800 
3414.4 -2236.05 5800 -4345.33 -2223.32 5800 1845.38 -2223.11 5800 
3414.52 -2223.05 5800 -4348.5 -2210.32 5800 1846.44 -2210.11 5800 
3414.64 -2210.05 5800 -4350.32 -2202.74 5800 -4351.62 -2197.32 5800 
1847.5 -2197.11 5800 3414.76 -2197.05 5800 -4354.75 -2184.32 5800 
1848.56 -2184.1 5800 3414.88 -2184.05 5800 -4357.87 -2171.32 5800 
1849.62 -2171.1 5800 3415 -2171.05 5800 -4361 -2158.32 5800 
1850.68 -2158.1 5800 3415.12 -2158.05 5800 -4364.12 -2145.32 5800 
1851.74 -2145.1 5800 3415.25 -2145.05 5800 -4367.25 -2132.31 5800 
1852.8 -2132.1 5800 3415.37 -2132.05 5800 -4370.37 -2119.31 5800 
1853.86 -2119.1 5800 3415.49 -2119.05 5800 -4373.49 -2106.31 5800 
1854.92 -2106.1 5800 3415.61 -2106.04 5800 -4376.62 -2093.31 5800 
1855.9 -2094 5800 1855.98 -2093.1 5800 3415.73 -2093.04 5800 
-4379.31 -2082.11 5800 -4379.74 -2080.31 5800 1857.04 -2080.1 5800 
3415.85 -2080.04 5800 -4382.87 -2067.31 5800 1858.1 -2067.09 5800 
3415.97 -2067.04 5800 -4385.99 -2054.31 5800 1859.16 -2054.09 5800 
3416.09 -2054.04 5800 -4389.12 -2041.31 5800 1860.21 -2041.09 5800 
3416.21 -2041.04 5800 -4392.24 -2028.31 5800 1861.27 -2028.09 5800 
3416.33 -2028.04 5800 -4395.37 -2015.31 5800 1862.33 -2015.09 5800 
3416.45 -2015.04 5800 -4398.49 -2002.31 5800 1861.81 -2002.09 5800 
3416.57 -2002.04 5800 -4401.61 -1989.3 5800 1860.03 -1989.09 5800 
3416.56 -1989.04 5800 -4404.74 -1976.3 5800 1858.26 -1976.09 5800 
3416.41 -1976.03 5800 -4407.86 -1963.3 5800 1856.48 -1963.09 5800 
3416.22 -1963.03 5800 -4408.3 -1961.47 5800 -4410.99 -1950.3 5800 
1854.71 -1950.09 5800 1855.91 -1958.92 5800 3416.03 -1950.03 5800 
-4414.11 -1937.3 5800 1852.93 -1937.09 5800 3415.84 -1937.03 5800 
-4417.24 -1924.3 5800 1851.15 -1924.08 5800 3415.65 -1924.03 5800 
-4420.36 -1911.3 5800 1849.38 -1911.08 5800 3415.46 -1911.03 5800 
-4423.49 -1898.3 5800 1847.6 -1898.08 5800 3415.27 -1898.03 5800 
-4426.61 -1885.3 5800 1845.83 -1885.08 5800 3415.08 -1885.03 5800 
-4429.73 -1872.3 5800 1846.41 -1872.08 5800 3414.89 -1872.03 5800 
-4432.86 -1859.3 5800 1847.43 -1859.08 5800 3414.7 -1859.03 5800 
-4435.98 -1846.3 5800 1848.33 -1846.08 5800 3414.5 -1846.02 5800 
-4437.29 -1840.84 5800 -4439.11 -1833.29 5800 1852.78 -1833.08 5800 
3414.31 -1833.02 5800 -4442.23 -1820.29 5800 1855.92 -1823.87 5800 
1857.37 -1820.08 5800 3414.12 -1820.02 5800 -4445.36 -1807.29 5800 
1861.66 -1807.07 5800 3413.93 -1807.02 5800 -4448.48 -1794.29 5800 
1866.11 -1794.07 5800 3413.74 -1794.02 5800 -4451.61 -1781.29 5800 
1870.55 -1781.07 5800 3413.55 -1781.02 5800 -4454.73 -1768.29 5800 
1874.99 -1768.07 5800 3413.36 -1768.02 5800 -4457.85 -1755.29 5800 
1879.44 -1755.07 5800 3413.17 -1755.02 5800 -4460.98 -1742.29 5800 
1883.88 -1742.07 5800 3412.98 -1742.02 5800 -4464.1 -1729.29 5800 
1884.93 -1738.99 5800 1888.32 -1729.07 5800 3412.79 -1729.02 5800 
-4466.29 -1720.2 5800 -4467.23 -1716.29 5800 1892.77 -1716.07 5800 
3412.6 -1716.01 5800 -4470.35 -1703.29 5800 1897.21 -1703.07 5800 
3412.41 -1703.01 5800 -4473.48 -1690.28 5800 1901.65 -1690.06 5800 
3412.21 -1690.01 5800 -4476.6 -1677.28 5800 1906.1 -1677.06 5800 
3412.02 -1677.01 5800 -4479.73 -1664.28 5800 1910.54 -1664.06 5800 
3408.26 -1664.01 5800 -4482.85 -1651.28 5800 1913.94 -1654.12 5800 
1914.98 -1651.06 5800 3403.19 -1651.01 5800 -4485.97 -1638.28 5800 
1919.43 -1638.06 5800 3396.32 -1638.01 5800 -4489.1 -1625.28 5800 
1923.87 -1625.06 5800 3392.99 -1631.72 5800 3389.44 -1625.01 5800 
-4492.22 -1612.28 5800 1928.31 -1612.06 5800 3382.57 -1612.01 5800 
-4495.28 -1599.57 5800 -4495.35 -1599.28 5800 1932.76 -1599.06 5800 
3375.69 -1599.01 5800 -4498.47 -1586.28 5800 1937.2 -1586.06 5800 
3368.82 -1586.01 5800 -4501.6 -1573.28 5800 1941.65 -1573.05 5800 
3363.99 -1576.89 5800 3361.94 -1573.01 5800 -4504.72 -1560.28 5800 
1942.95 -1569.24 5800 1946.09 -1560.05 5800 3355.07 -1560 5800 
-4507.85 -1547.27 5800 1950.53 -1547.05 5800 3348.19 -1547 5800 
-4510.97 -1534.27 5800 1955.1 -1534.05 5800 3344.25 -1534 5800 
-4514.09 -1521.27 5800 1959.61 -1521.05 5800 3341.83 -1521 5800 
-4517.22 -1508.27 5800 1964.1 -1508.05 5800 3339.85 -1508 5800 
[...]
POINT_DATA 16324
SCALARS Pressure double
LOOKUP_TABLE default
3.0912819036 3.0912819036 3.0912819036 3.0912819036 3.0912819036 3.0912819036 3.0912819036 3.0912819036 3.0912819036 
3.0912819036 3.0912819036 3.0912819036 3.0912819036 3.0912819036 3.0912819036 3.0912819036 3.0912819036 3.0912819036 
3.0912819036 3.0912819036 3.0912819036 3.0912819036 3.0912819036 3.0912819036 3.0912819036 3.0912819036 3.0912819036 
3.0912819036 3.0912819036 3.0912819036 3.0912819036 3.0912819036 3.0912819036 3.0912819036 3.0912819036 3.0912819036 
3.0912819036 3.0912819036 3.0912819036 3.0912819036 3.0912819036 3.0912819036 3.0912819036 3.0912819036 3.0912819036 
3.0912819036 3.0912819036 3.0912819036 3.0912819036 3.0912819036 3.0912819036 3.0912819036 3.0912819036 3.0912819036 
3.0912819036 3.0912819036 3.0912819036 3.0912819036 3.0912819036 3.0912819036 3.0912819036 3.0912819036 3.0912819036 
3.0912819036 3.0912819036 3.0912819036 3.0912819036 3.0912819036 3.0912819036 3.0912819036 3.0912819036 3.0912819036 
3.0912819036 3.0912819036 3.0912819036 3.0912819036 3.0912819036 3.0912819036 3.0912819036 3.0912819036 3.0912819036 
3.0912819036 3.0912819036 3.0912819036 3.0912819036 3.0912819036 3.0912819036 3.0912819036 3.0912819036 3.0912819036 
3.0912819036 3.0912819036 3.0912819036 3.0912819036 3.0912819036 3.0912819036 3.0912819036 3.0912819036 3.0912819036 
3.0912819036 3.0912819036 3.0912819036 3.0912819036 3.0912819036 3.0912819036 3.0912819036 3.0912819036 3.0912819036 
3.0912819036 3.0912819036 3.0912819036 3.0912819036 3.0912819036 3.0912819036 3.0912819036 3.0912819036 3.0912819036 
3.0912819036 3.0912819036 3.0912819036 3.0912819036 3.0912819036 3.0912819036 3.0912819036 3.0912819036 3.0912819036 
3.0912819036 3.0912819036 3.0912819036 3.0912819036 3.0912819036 3.0912819036 3.0912819036 3.0912819036 3.0912819036 
3.0912819036 3.0912819036 3.0912819036 3.0912819036 3.0912819036 3.0912819036 3.0912819036 3.0912819036 3.0912819036 
3.0912819036 3.0912819036 3.0912819036 3.0912819036 3.0912819036 3.0912819036 3.0912819036 3.0912819036 3.0912819036 
3.0912819036 3.0912819036 3.0912819036 3.0912819036 3.0912819036 3.0912819036 3.0912819036 3.0912819036 3.0912819036 
3.0912819036 3.0912819036 3.0912819036 3.0912819036 3.0912819036 3.0912819036 3.0912819036 3.0912819036 3.0912819036 
3.0912819036 3.0912819036 3.0912819036 3.0912819036 3.0912819036 3.0912819036 3.0912819036 3.0912819036 3.0912819036 
3.0912819036 3.0912819036 3.0912819036 3.0912819036 3.0912819036 3.0912819036 3.0912819036 3.0912819036 3.0912819036 
3.0912819036 3.0912819036 3.0912819036 3.0912819036 3.0912819036 3.0912819036 3.0912819036 3.0912819036 3.0912819036 
3.0912819036 3.0912819036 3.0912819036 3.0912819036 3.0912819036 3.0912819036 3.0912819036 3.0912819036 3.0912819036 
3.0912819036 3.0912819036 3.0912819036 3.0912819036 3.0912819036 3.0912819036 3.0912819036 3.0912819036 3.0912819036 
3.0912819036 3.0912819036 3.0912819036 3.0912819036 3.0912819036 3.0912819036 3.0912819036 3.0912819036 3.0912819036 
3.0912819036 3.0912819036 3.0912819036 3.0912819036 3.0912819036 3.0912819036 3.0912819036 3.0912819036 3.0912819036 
3.0912819036 3.0912819036 3.0912819036 3.0912819036 3.0912819036 3.0912819036 3.0912819036 3.0912819036 3.0912819036 
3.0912819036 3.0912819036 3.0912819036 3.0912819036 3.0912819036 3.0912819036 3.0912819036 3.0912819036 3.0912819036 
3.0912819036 3.0912819036 3.0912819036 3.0912819036 3.0912819036 3.0912819036 3.0912819036 3.0912819036 3.0912819036 
3.0912819036 3.0912819036 3.0912819036 3.0912819036 3.0912819036 3.0912819036 3.0912819036 3.0912819036 3.0912819036 
3.0912819036 3.0912819036 3.0912819036 3.0912819036 3.0912819036 3.0912819036 3.0912819036 3.0912819036 3.0912819036 
3.0912819036 3.0912819036 3.0912819036 3.0912819036 3.0912819036 3.0912819036 3.0912819036 3.0912819036 3.0912819036 
3.0912819036 3.0912819036 3.0912819036 3.0912819036 3.0912819036 3.0912819036 3.0912819036 3.0912819036 3.0912819036 
3.0912819036 3.0912819036 3.0912819036 3.0912819036 3.0912819036 3.0912819036 3.0912819036 3.0912819036 3.0912819036 
3.0912819036 3.0912819036 3.0912819036 3.0912819036 3.0912819036 3.0912819036 3.0912819036 3.0912819036 3.0912819036 
3.0912819036 3.0912819036 3.0912819036 3.0912819036 3.0912819036 3.0912819036 3.0912819036 3.0912819036 3.0912819036 
3.0912819036 3.0912819036 3.0912819036 3.0912819036 3.0912819036 3.0912819036 3.0912819036 3.0912819036 3.0912819036 
3.0912819036 3.0912819036 3.0912819036 3.0912819036 3.0912819036 3.0912819036 3.0912819036 3.0912819036 3.0912819036 
3.0912819036 3.0912819036 3.0912819036 3.0912819036 3.0912819036 3.0912819036 3.0912819036 3.0912819036 3.0912819036 
3.0912819036 3.0912819036 3.0912819036 3.0912819036 3.0912819036 3.0912819036 3.0912819036 3.0912819036 3.0912819036 
3.0912819036 3.0912819036 3.0912819036 3.0912819036 3.0912819036 3.0912819036 3.0912819036 3.0912819036 3.0912819036 
3.0912819036 3.0912819036 3.0912819036 3.0912819036 3.0912819036 3.0912819036 3.0912819036 3.0912819036 3.0912819036 
3.0912819036 3.0912819036 3.0912819036 3.0912819036 3.0912819036 3.0912819036 3.0912819036 3.0912819036 3.0912819036 
3.0912819036 3.0912819036 3.0912819036 3.0912819036 3.0912819036 3.0912819036 3.0912819036 3.0912819036 3.0912819036 
3.0912819036 3.0912819036 3.0912819036 3.0912819036 3.0912819036 3.0912819036 3.0912819036 3.0912819036 3.0912819036 
3.0912819036 3.0912819036 3.0912819036 3.0912819036 3.0912819036 3.0912819036 3.0912819036 3.0912819036 3.0912819036 
3.0912819036 3.0912819036 3.0912819036 3.0912819036 3.0912819036 3.0912819036 3.0912819036 3.0912819036 3.0912819036 
3.0912819036 3.0912819036 3.0912819036 3.0912819036 3.0912819036 3.0912819036 3.0912819036 3.0912819036 3.0912819036 
3.0912819036 3.0912819036 3.0912819036 3.0912819036 3.0912819036 3.0912819036 3.0912819036 3.0912819036 3.0912819036 
3.0912819036 3.0912819036 3.0912819036 3.0912819036 3.0912819036 3.0912819036 3.0912819036 3.0912819036 3.0912819036 
3.0912819036 3.0973147273 3.0973147273 3.0973147273 3.0912819036 3.0912819036 3.0912819036 3.0912819036 3.0973147273 
3.0973147273 3.0973147273 3.0973147273 3.0912819036 3.0912819036 3.0912819036 3.0973147273 3.0973147273 3.0973147273 
3.0912819036 3.0912819036 3.0912819036 3.0973147273 3.0973147273 3.0973147273 3.0973147273 3.0912819036 3.0912819036 
3.0912819036 3.0973147273 3.0973147273 3.0973147273 3.0973147273 3.0973147273 3.0912819036 3.0912819036 3.0912819036 
3.0973147273 3.0973147273 3.0973147273 3.0973147273 3.0973147273 3.0912819036 3.0912819036 3.0912819036 3.0973147273 
3.0973147273 3.0973147273 3.0973147273 3.0912819036 3.0912819036 3.0912819036 3.0973147273 3.0973147273 3.0912819036 
3.0912819036 3.0912819036 3.0973147273 3.0973147273 3.0912819036 3.0912819036 3.0912819036 3.0912819036 3.0912819036 
3.0973147273 3.0973147273 3.0973147273 3.0973147273 3.0912819036 3.0912819036 3.0912819036 3.0973147273 3.0973147273 
3.0912819036 3.0912819036 3.0912819036 3.0973147273 3.0973147273 3.0912819036 3.0912819036 3.0912819036 3.0973147273 
3.0973147273 3.0973147273 3.0912819036 3.0912819036 3.0912819036 3.0973147273 3.0973147273 3.0973147273 3.0912819036 
3.0912819036 3.0912819036 3.0973147273 3.0973147273 3.0912819036 3.0912819036 3.0912819036 3.0973147273 3.0973147273 
3.0973147273 3.0912819036 3.0912819036 3.0912819036 3.0973147273 3.0973147273 3.0912819036 3.0912819036 3.0912819036 
3.0973147273 3.0973147273 3.0973147273 3.0912819036 3.0912819036 3.0912819036 3.0912819036 3.0973147273 3.0973147273 
3.0973147273 3.0912819036 3.0912819036 3.0912819036 3.0973147273 3.0973147273 3.0912819036 3.0912819036 3.0912819036 
3.0912819036 3.0973147273 3.0973147273 3.0973147273 3.0912819036 3.0912819036 3.0912819036 3.0973147273 3.0973147273 
3.0912819036 3.0912819036 3.0912819036 3.0973147273 3.0973147273 3.0973147273 3.0912819036 3.0912819036 3.0912819036 
3.0973147273 3.0973147273 3.0912819036 3.0912819036 3.0912819036 3.0973147273 3.0973147273 3.0973147273 3.0912819036 
3.0912819036 3.0912819036 3.0973147273 3.0973147273 3.0973147273 3.0912819036 3.08524908 3.08524908 3.08524908 
3.0912819036 3.0912819036 3.0973147273 3.0973147273 3.0912819036 3.08524908 3.08524908 3.08524908 3.0912819036 
3.0912819036 3.0973147273 3.0973147273 3.0912819036 3.08524908 3.08524908 3.08524908 3.08524908 3.08524908 
3.0912819036 3.0912819036 3.0912819036 3.0973147273 3.0973147273 3.0973147273 3.0912819036 3.08524908 3.08524908 
3.08524908 3.0912819036 3.0912819036 3.0973147273 3.0973147273 3.0912819036 3.08524908 3.08524908 3.08524908 
3.0912819036 3.08524908 3.08524908 3.08524908 3.08524908 3.0912819036 3.0973147273 3.0973147273 3.0912819036 
3.08524908 3.08524908 3.08524908 3.0912819036 3.08524908 3.08524908 3.08524908 3.08524908 3.0912819036 
3.0973147273 3.0973147273 3.0912819036 3.08524908 3.08524908 3.08524908 3.08524908 3.08524908 3.0912819036 
3.08524908 3.08524908 3.08524908 3.08524908 3.08524908 3.0912819036 3.0973147273 3.0973147273 3.0912819036 
3.08524908 3.08524908 3.08524908 3.08524908 3.0912819036 3.08524908 3.08524908 3.08524908 3.08524908 
3.0912819036 3.0973147273 3.0973147273 3.0973147273 3.0912819036 3.08524908 3.08524908 3.08524908 3.08524908 
3.0912819036 3.08524908 3.08524908 3.08524908 3.08524908 3.08524908 3.0912819036 3.0973147273 3.0973147273 
3.0912819036 3.0912819036 3.08524908 3.08524908 3.0912819036 3.08524908 3.08524908 3.08524908 3.08524908 
3.0912819036 3.0973147273 3.103347551 3.103347551 3.103347551 3.103347551 3.103347551 3.103347551 3.103347551 
3.103347551 3.103347551 3.0973147273 3.0912819036 3.08524908 3.08524908 3.08524908 3.0912819036 3.08524908 
3.08524908 3.08524908 3.08524908 3.08524908 3.0912819036 3.0973147273 3.103347551 3.103347551 3.103347551 
3.0973147273 3.0973147273 3.0912819036 3.08524908 3.08524908 3.0912819036 3.0912819036 3.08524908 3.08524908 
3.08524908 3.08524908 3.08524908 3.08524908 3.08524908 3.0912819036 3.0973147273 3.103347551 3.103347551 
3.103347551 3.0973147273 3.0912819036 3.0912819036 3.08524908 3.08524908 3.08524908 3.0912819036 3.08524908 
3.08524908 3.08524908 3.0912819036 3.0973147273 3.103347551 3.103347551 3.103347551 3.0973147273 3.0912819036 
3.08524908 3.08524908 3.08524908 3.0912819036 3.08524908 3.08524908 3.08524908 3.0912819036 3.0973147273 
3.103347551 3.103347551 3.0973147273 3.0912819036 3.08524908 3.08524908 3.0912819036 3.08524908 3.08524908 
3.0912819036 3.0973147273 3.103347551 3.103347551 3.103347551 3.103347551 3.0973147273 3.0912819036 3.08524908 
3.08524908 3.0912819036 3.08524908 3.08524908 3.08524908 3.0912819036 3.0973147273 3.0973147273 3.103347551 
3.103347551 3.0973147273 3.0912819036 3.08524908 3.08524908 3.0912819036 3.08524908 3.08524908 3.0912819036 
3.0973147273 3.103347551 3.103347551 3.103347551 3.0973147273 3.0912819036 3.08524908 3.08524908 3.08524908 
3.0912819036 3.08524908 3.08524908 3.08524908 3.0912819036 3.0912819036 3.0973147273 3.103347551 3.103347551 
3.103347551 3.0973147273 3.0912819036 3.08524908 3.08524908 3.08524908 3.0912819036 3.08524908 3.08524908 
3.08524908 3.0912819036 3.0973147273 3.103347551 3.103347551 3.103347551 3.0973147273 3.0912819036 3.08524908 
3.08524908 3.0912819036 3.08524908 3.08524908 3.0912819036 3.0973147273 3.103347551 3.103347551 3.103347551 
3.0973147273 3.0912819036 3.08524908 3.08524908 3.0912819036 3.0912819036 3.08524908 3.08524908 3.0912819036 
3.0973147273 3.103347551 3.103347551 3.0973147273 3.0912819036 3.08524908 3.08524908 3.08524908 3.0912819036 
3.08524908 3.08524908 3.08524908 3.08524908 3.0912819036 3.0973147273 3.103347551 3.103347551 3.0973147273 
3.0912819036 3.08524908 3.08524908 3.0912819036 3.08524908 3.08524908 3.0912819036 3.0973147273 3.103347551 
3.103347551 3.103347551 3.0973147273 3.0973147273 3.0912819036 3.08524908 3.08524908 3.0912819036 3.08524908 
3.08524908 3.08524908 3.0912819036 3.0973147273 3.103347551 3.103347551 3.0973147273 3.0912819036 3.0912819036 
3.08524908 3.08524908 3.08524908 3.0912819036 3.08524908 3.08524908 3.0912819036 3.0973147273 3.0973147273 
3.103347551 3.103347551 3.103347551 3.0973147273 3.0912819036 3.08524908 3.08524908 3.08524908 3.0912819036 
3.0912819036 3.08524908 3.08524908 3.08524908 3.08524908 3.0912819036 3.0973147273 3.103347551 3.103347551 
3.103347551 3.0973147273 3.0912819036 3.08524908 3.08524908 3.0912819036 3.08524908 3.08524908 3.08524908 
3.0912819036 3.0973147273 3.103347551 3.1093803746 3.1093803746 3.1093803746 3.103347551 3.0973147273 3.0912819036 
3.08524908 3.08524908 3.0912819036 3.08524908 3.08524908 3.0912819036 3.0973147273 3.103347551 3.1093803746 
3.1093803746 3.1093803746 3.1093803746 3.1093803746 3.103347551 3.0973147273 3.0912819036 3.08524908 3.08524908 
3.08524908 3.08524908 3.0912819036 3.0912819036 3.08524908 3.08524908 3.08524908 3.0912819036 3.0973147273 
3.103347551 3.103347551 3.1093803746 3.1093803746 3.1093803746 3.103347551 3.0973147273 3.0912819036 3.08524908 
3.08524908 3.0912819036 3.08524908 3.08524908 3.08524908 3.0912819036 3.0912819036 3.0973147273 3.103347551 
3.1093803746 3.1093803746 3.1093803746 3.1093803746 3.1093803746 3.103347551 3.103347551 3.0973147273 3.0912819036 
3.08524908 3.08524908 3.0912819036 3.08524908 3.08524908 3.0912819036 3.0973147273 3.103347551 3.1093803746 
3.1093803746 3.1093803746 3.103347551 3.0973147273 3.0912819036 3.08524908 3.08524908 3.08524908 3.08524908 
3.0912819036 3.0912819036 3.08524908 3.08524908 3.08524908 3.0912819036 3.0973147273 3.103347551 3.103347551 
3.1093803746 3.1093803746 3.1093803746 3.103347551 3.0973147273 3.0912819036 3.08524908 3.08524908 3.0912819036 
3.08524908 3.08524908 3.08524908 3.0912819036 3.0912819036 3.0973147273 3.103347551 3.1093803746 3.1093803746 
3.1093803746 3.103347551 3.0973147273 3.0912819036 3.08524908 3.08524908 3.0912819036 3.0912819036 3.08524908 
3.08524908 3.0912819036 3.0973147273 3.103347551 3.1093803746 3.1093803746 3.103347551 3.103347551 3.0973147273 
3.0973147273 3.0912819036 3.0912819036 3.08524908 3.08524908 3.08524908 3.08524908 3.0912819036 3.08524908 
3.08524908 3.08524908 3.0912819036 3.0973147273 3.103347551 3.1093803746 3.1093803746 3.1093803746 3.1093803746 
3.103347551 3.0973147273 3.0912819036 3.08524908 3.08524908 3.0912819036 3.08524908 3.08524908 3.08524908 
3.0912819036 3.0912819036 3.0973147273 3.103347551 3.1093803746 3.1093803746 3.1093803746 3.103347551 3.0973147273 
3.0912819036 3.08524908 3.08524908 3.0912819036 3.0912819036 3.08524908 3.08524908 3.0912819036 3.0973147273 
3.103347551 3.1093803746 3.1093803746 3.103347551 3.0973147273 3.0912819036 3.08524908 3.08524908 3.08524908 
3.0912819036 3.08524908 3.08524908 3.08524908 3.0912819036 3.0973147273 3.103347551 3.1093803746 3.1093803746 
3.1093803746 3.103347551 3.0973147273 3.0912819036 3.08524908 3.08524908 3.0912819036 3.0912819036 3.08524908 
3.08524908 3.0912819036 3.0973147273 3.103347551 3.1093803746 3.1093803746 3.1154131983 3.1154131983 3.1154131983 
3.1093803746 3.103347551 3.103347551 3.0973147273 3.0912819036 3.08524908 3.08524908 3.08524908 3.0912819036 
3.08524908 3.08524908 3.0912819036 3.0973147273 3.0973147273 3.103347551 3.1093803746 3.1154131983 3.1154131983 
3.1154131983 3.1154131983 3.1093803746 3.103347551 3.0973147273 3.0912819036 3.08524908 3.08524908 3.08524908 
3.08524908 3.0912819036 3.08524908 3.08524908 3.08524908 3.08524908 3.0912819036 3.0973147273 3.103347551 
3.103347551 3.1093803746 3.1154131983 3.1154131983 3.1154131983 3.1154131983 3.1093803746 3.103347551 3.0973147273 
3.0912819036 3.08524908 3.08524908 3.08524908 3.0912819036 3.0912819036 3.08524908 3.08524908 3.0912819036 
3.0973147273 3.103347551 3.1093803746 3.1093803746 3.1154131983 3.1154131983 3.1154131983 3.1154131983 3.1093803746 
3.103347551 3.0973147273 3.0912819036 3.08524908 3.08524908 3.0912819036 3.08524908 3.08524908 3.08524908 
3.0912819036 3.0973147273 3.103347551 3.1093803746 3.1154131983 3.1154131983 3.1154131983 3.1093803746 3.1093803746 
3.103347551 3.0973147273 3.0912819036 3.08524908 3.08524908 3.08524908 3.0912819036 3.0912819036 3.08524908 
3.08524908 3.0912819036 3.0973147273 3.103347551 3.1093803746 3.1093803746 3.1154131983 3.1154131983 3.1154131983 
3.1154131983 3.1093803746 3.103347551 3.0973147273 3.0912819036 3.08524908 3.08524908 3.08524908 3.0912819036 
3.08524908 3.08524908 3.0912819036 3.0912819036 3.0973147273 3.103347551 3.1093803746 3.1154131983 3.1154131983 
3.1154131983 3.1093803746 3.103347551 3.103347551 3.0973147273 3.0912819036 3.08524908 3.08524908 3.0912819036 
3.08524908 3.08524908 3.0912819036 3.0973147273 3.103347551 3.1093803746 3.1154131983 3.1154131983 3.1154131983 
3.1093803746 3.1093803746 3.103347551 3.0973147273 3.0912819036 3.08524908 3.08524908 3.0792162563 3.0792162563 
3.0792162563 3.0792162563 3.08524908 3.08524908 3.08524908 3.0912819036 3.0912819036 3.08524908 3.0792162563 
3.0792162563 3.0792162563 3.0792162563 3.0792162563 3.0792162563 3.0792162563 3.08524908 3.0912819036 3.0973147273 
3.103347551 3.1093803746 3.1154131983 3.1154131983 3.1093803746 3.103347551 3.0973147273 3.0912819036 3.08524908 
3.0792162563 3.0792162563 3.0792162563 3.0792162563 3.08524908 3.08524908 3.08524908 3.08524908 3.0912819036 
3.08524908 3.0792162563 3.0792162563 3.0792162563 3.0792162563 3.0792162563 3.0792162563 3.0792162563 3.08524908 
3.0912819036 3.0973147273 3.103347551 3.103347551 3.1093803746 3.1154131983 3.1154131983 3.1214460219 3.1214460219 
3.1214460219 3.1154131983 3.1154131983 3.1093803746 3.103347551 3.0973147273 3.0912819036 3.08524908 3.0792162563 
3.0792162563 3.0792162563 3.08524908 3.08524908 3.08524908 3.08524908 3.0912819036 3.0912819036 3.08524908 
3.0792162563 3.0792162563 3.0792162563 3.08524908 3.0912819036 3.0973147273 3.103347551 3.1093803746 3.1093803746 
3.1154131983 3.1214460219 3.1214460219 3.1214460219 3.1214460219 3.1154131983 3.1093803746 3.103347551 3.0973147273 
3.0912819036 3.0912819036 3.08524908 3.0792162563 3.0792162563 3.0792162563 3.08524908 3.08524908 3.08524908 
3.08524908 3.08524908 3.0912819036 3.08524908 3.0792162563 3.0792162563 3.0792162563 3.0792162563 3.08524908 
3.08524908 3.0912819036 3.0973147273 3.103347551 3.1093803746 3.1154131983 3.1214460219 3.1214460219 3.1214460219 
3.1154131983 3.1093803746 3.1093803746 3.103347551 3.103347551 3.0973147273 3.0912819036 3.08524908 3.0792162563 
3.0792162563 3.0792162563 3.08524908 3.08524908 3.08524908 3.08524908 3.08524908 3.0912819036 3.08524908 
3.0792162563 3.0792162563 3.08524908 3.0912819036 3.0973147273 3.103347551 3.1093803746 3.1154131983 3.1154131983 
3.1214460219 3.1214460219 3.1214460219 3.1214460219 3.1154131983 3.1154131983 3.1093803746 3.103347551 3.0973147273 
3.0912819036 3.08524908 3.0792162563 3.0792162563 3.0792162563 3.08524908 3.08524908 3.0912819036 3.0912819036 
3.08524908 3.0792162563 3.0792162563 3.0792162563 3.0792162563 3.08524908 3.0912819036 3.0973147273 3.103347551 
3.1093803746 3.1154131983 3.1214460219 3.1214460219 3.1214460219 3.1214460219 3.1154131983 3.1093803746 3.103347551 
3.0973147273 3.0973147273 3.0912819036 3.08524908 3.0792162563 3.0792162563 3.0792162563 3.08524908 3.0912819036 
3.08524908 3.0792162563 3.0792162563 3.08524908 3.0912819036 3.0973147273 3.103347551 3.1093803746 3.1154131983 
3.1214460219 3.1214460219 3.1214460219 3.1154131983 3.1154131983 3.1093803746 3.103347551 3.0973147273 3.0912819036 
3.08524908 3.0792162563 3.0792162563 3.08524908 3.0912819036 3.0912819036 3.08524908 3.0792162563 3.0792162563 
3.0792162563 3.0792162563 3.08524908 3.08524908 3.0912819036 3.0973147273 3.103347551 3.1093803746 3.1154131983 
3.1154131983 3.1214460219 3.1214460219 3.1214460219 3.1154131983 3.1093803746 3.103347551 3.0973147273 3.0912819036 
3.08524908 3.0792162563 3.0792162563 3.08524908 3.08524908 3.0912819036 3.08524908 3.0792162563 3.0792162563 
3.08524908 3.0912819036 3.0973147273 3.103347551 3.1093803746 3.1093803746 3.1154131983 3.1214460219 3.1274788456 
3.1274788456 3.1274788456 3.1214460219 3.1214460219 3.1154131983 3.1093803746 3.1093803746 3.103347551 3.0973147273 