# vtk DataFile Version 4.2
vtk output
ASCII
DATASET POLYDATA
POINTS 18802 float
-6297.33 -4250.42 0 -6298.03 -4233.42 0 1614.93 -4233.21 0 
1627.79 -4234.28 0 1664.8 -4237.36 0 1701.8 -4240.44 0 
1738.8 -4243.52 0 1775.8 -4246.61 0 1812.8 -4249.69 0 
1818.93 -4250.2 0 2478.96 -4250.18 0 2489.86 -4233.18 0 
-6298.74 -4216.42 0 1410.94 -4216.21 0 1442.79 -4218.86 0 
1479.79 -4221.95 0 1516.79 -4225.03 0 1553.79 -4228.11 0 
1590.79 -4231.19 0 2499.52 -4216.18 0 -6299.44 -4199.42 0 
1394.22 -4199.21 0 1405.79 -4215.78 0 2508.14 -4199.18 0 
-6300.15 -4182.42 0 1384.94 -4182.21 0 2515.82 -4182.3 0 
2515.87 -4182.18 0 -6300.85 -4165.42 0 1377.52 -4165.21 0 
2522.65 -4165.18 0 -6301.56 -4148.41 0 1371.43 -4148.21 0 
2529.43 -4148.18 0 -6302.27 -4131.41 0 1366.18 -4131.21 0 
1368.79 -4139.68 0 2536.21 -4131.17 0 -6302.97 -4114.41 0 
1360.92 -4114.21 0 2543 -4114.17 0 -6303.68 -4097.41 0 
1355.67 -4097.2 0 2549.78 -4097.17 0 -6304.38 -4080.41 0 
1350.42 -4080.2 0 2552.83 -4089.52 0 2556.56 -4080.17 0 
-6305.09 -4063.41 0 1345.16 -4063.2 0 2563.34 -4063.17 0 
-6305.79 -4046.41 0 1339.91 -4046.2 0 2570.12 -4046.17 0 
-6306.5 -4029.41 0 1334.66 -4029.2 0 2576.9 -4029.17 0 
-6307.2 -4012.41 0 1329.4 -4012.2 0 1331.8 -4019.96 0 
2583.68 -4012.17 0 -6307.91 -3995.41 0 1324.15 -3995.2 0 
2589.83 -3996.74 0 2590.46 -3995.17 0 -6308.61 -3978.4 0 
1318.9 -3978.2 0 2597.24 -3978.16 0 -6309.32 -3961.4 0 
1313.64 -3961.2 0 2604.02 -3961.16 0 -6310.02 -3944.4 0 
1308.39 -3944.2 0 2610.8 -3944.16 0 -6310.73 -3927.4 0 
1303.14 -3927.2 0 2617.59 -3927.16 0 -6311.43 -3910.4 0 
1292.65 -3910.2 0 1294.8 -3913.41 0 2624.37 -3910.16 0 
-6312.14 -3893.4 0 1280.8 -3893.19 0 2626.84 -3903.96 0 
2631.15 -3893.16 0 -6312.84 -3876.4 0 1268.95 -3876.19 0 
2637.93 -3876.16 0 -6313.55 -3859.4 0 1257.1 -3859.19 0 
1257.81 -3860.21 0 2644.71 -3859.16 0 -6314.26 -3842.4 0 
1245.25 -3842.19 0 2651.49 -3842.15 0 -6314.96 -3825.4 0 
1233.4 -3825.19 0 2658.27 -3825.15 0 -6315.67 -3808.39 0 
1221.55 -3808.19 0 2663.85 -3811.17 0 2665.05 -3808.15 0 
-6316.37 -3791.39 0 1209.7 -3791.19 0 1220.81 -3807.12 0 
2671.83 -3791.15 0 -6317.08 -3774.39 0 1197.86 -3774.19 0 
2678.61 -3774.15 0 -6317.78 -3757.39 0 1186.01 -3757.19 0 
2685.4 -3757.15 0 -6318.49 -3740.39 0 1174.16 -3740.19 0 
1183.81 -3754.04 0 2692.18 -3740.15 0 -6319.19 -3723.39 0 
1162.31 -3723.19 0 2698.96 -3723.15 0 -6319.9 -3706.39 0 
1150.46 -3706.19 0 2700.85 -3718.39 0 2705.74 -3706.14 0 
-6320.6 -3689.39 0 1138.61 -3689.19 0 1146.81 -3700.95 0 
2712.52 -3689.14 0 -6321.31 -3672.39 0 1126.76 -3672.19 0 
2719.3 -3672.14 0 -6322.01 -3655.39 0 1114.92 -3655.18 0 
2726.08 -3655.14 0 -6322.72 -3638.38 0 1103.07 -3638.18 0 
1109.82 -3647.87 0 2732.86 -3638.14 0 -6323.42 -3621.38 0 
1091.22 -3621.18 0 2737.86 -3625.61 0 2739.64 -3621.14 0 
-6324.13 -3604.38 0 1079.37 -3604.18 0 2746.42 -3604.14 0 
-6324.83 -3587.38 0 1067.52 -3587.18 0 1072.82 -3594.78 0 
2753.21 -3587.14 0 -6325.54 -3570.38 0 1055.67 -3570.18 0 
2759.99 -3570.14 0 -6326.25 -3553.38 0 1043.82 -3553.18 0 
2766.77 -3553.13 0 -6326.95 -3536.38 0 1031.98 -3536.18 0 
1035.82 -3541.7 0 2773.55 -3536.13 0 -6327.38 -3526.06 0 
-6327.69 -3519.38 0 1020.13 -3519.18 0 2774.87 -3532.83 0 
2780.33 -3519.13 0 -6328.55 -3502.38 0 1008.28 -3502.18 0 
2787.11 -3502.13 0 -6329.54 -3485.38 0 996.43 -3485.18 0 
998.822 -3488.61 0 2793.89 -3485.13 0 -6330.68 -3468.38 0 
984.582 -3468.18 0 2800.67 -3468.13 0 -6332.02 -3451.37 0 
972.733 -3451.18 0 2807.45 -3451.13 0 -6333.1 -3434.37 0 
960.884 -3434.18 0 961.824 -3435.52 0 2811.87 -3440.05 0 
2814 -3434.13 0 -6338.92 -3417.37 0 949.036 -3417.18 0 
2816.29 -3417.13 0 -6343.45 -3400.37 0 937.187 -3400.17 0 
2811.88 -3411.34 0 2802.6 -3400.12 0 -6347.99 -3383.37 0 
925.339 -3383.17 0 2789.99 -3383.12 0 -6352.52 -3366.37 0 
913.49 -3366.17 0 924.826 -3382.44 0 2776.44 -3366.12 0 
-6357.05 -3349.37 0 901.641 -3349.17 0 2774.88 -3364.17 0 
2762.88 -3349.12 0 -6361.59 -3332.37 0 889.793 -3332.17 0 
2749.33 -3332.12 0 -6364.37 -3321.94 0 -6366.12 -3315.37 0 
877.944 -3315.17 0 887.828 -3329.35 0 2737.88 -3317.76 0 
2735.78 -3315.12 0 -6370.65 -3298.37 0 866.096 -3298.17 0 
2722.22 -3298.12 0 -6375.19 -3281.37 0 854.247 -3281.17 0 
2708.67 -3281.12 0 -6379.72 -3264.36 0 844.903 -3264.17 0 
850.83 -3276.27 0 2700.88 -3271.35 0 2695.12 -3264.12 0 
-6384.25 -3247.36 0 839.102 -3247.17 0 2681.57 -3247.12 0 
-6388.78 -3230.36 0 835.048 -3230.17 0 2668.01 -3230.12 0 
-6393.32 -3213.36 0 832.055 -3213.17 0 2663.88 -3224.94 0 
2654.46 -3213.12 0 -6397.85 -3196.36 0 829.756 -3196.17 0 
2640.91 -3196.12 0 -6401.36 -3183.2 0 -6402.38 -3179.36 0 
828.458 -3179.16 0 2627.36 -3179.12 0 -6406.92 -3162.36 0 
828.28 -3162.16 0 2626.88 -3178.52 0 2613.8 -3162.12 0 
-6411.45 -3145.36 0 828.103 -3145.16 0 2600.25 -3145.11 0 
-6415.98 -3128.36 0 827.925 -3128.16 0 2589.89 -3132.11 0 
2586.7 -3128.11 0 -6420.52 -3111.36 0 827.748 -3111.16 0 
2573.15 -3111.11 0 -6425.05 -3094.36 0 827.57 -3094.16 0 
2559.59 -3094.11 0 -6429.58 -3077.35 0 827.392 -3077.16 0 
2552.89 -3086.12 0 2548.44 -3077.11 0 -6434.12 -3060.35 0 
827.215 -3060.16 0 2551.92 -3060.11 0 -6438.35 -3044.46 0 
-6438.65 -3043.35 0 827.037 -3043.16 0 2552.89 -3055.35 0 
2555.39 -3043.11 0 -6443.18 -3026.35 0 826.86 -3026.16 0 
2558.86 -3026.11 0 -6447.72 -3009.35 0 826.682 -3009.15 0 
2562.34 -3009.11 0 -6452.25 -2992.35 0 826.505 -2992.15 0 
2565.81 -2992.11 0 -6456.78 -2975.35 0 826.327 -2975.15 0 
2569.28 -2975.11 0 -6461.31 -2958.35 0 826.15 -2958.15 0 
2572.76 -2958.1 0 -6465.85 -2941.35 0 826.787 -2941.15 0 
2576.23 -2941.1 0 -6470.38 -2924.35 0 829.681 -2924.15 0 
2579.71 -2924.1 0 -6474.91 -2907.35 0 832.613 -2907.15 0 
2583.18 -2907.1 0 -6475.35 -2905.73 0 -6479.45 -2890.34 0 
835.546 -2890.15 0 2586.65 -2890.1 0 -6483.98 -2873.34 0 
838.478 -2873.15 0 2589.9 -2874.2 0 2590.13 -2873.1 0 
-6488.51 -2856.34 0 841.41 -2856.15 0 2593.6 -2856.1 0 
-6493.05 -2839.34 0 844.343 -2839.14 0 2597.07 -2839.1 0 
-6497.58 -2822.34 0 847.275 -2822.14 0 2600.55 -2822.1 0 
-6502.11 -2805.34 0 850.208 -2805.14 0 2604.02 -2805.09 0 
-6506.65 -2788.34 0 850.858 -2801.37 0 851.732 -2788.14 0 
2607.49 -2788.09 0 -6511.18 -2771.34 0 843.926 -2771.14 0 
850.859 -2784.91 0 2610.97 -2771.09 0 -6512.34 -2766.99 0 
-6515.71 -2754.34 0 836.898 -2754.14 0 2614.44 -2754.09 0 
-6520.25 -2737.34 0 832.975 -2737.14 0 2617.92 -2737.09 0 
-6524.78 -2720.34 0 828.214 -2720.14 0 2621.39 -2720.09 0 
-6529.31 -2703.34 0 821.839 -2703.14 0 2624.86 -2703.09 0 
-6533.85 -2686.33 0 815.464 -2686.14 0 2626.91 -2693.05 0 
2628.34 -2686.09 0 -6538.38 -2669.33 0 809.089 -2669.14 0 
813.864 -2681.87 0 2631.81 -2669.09 0 -6542.91 -2652.33 0 
-1073.19 -2654.2 0 -1074.72 -2652.19 0 -1036.18 -2657.02 0 
-999.183 -2654.17 0 -973.428 -2652.18 0 802.714 -2652.13 0 
2635.28 -2652.08 0 -6547.44 -2635.33 0 -1086.13 -2635.18 0 
-962.182 -2651.32 0 -925.181 -2648.46 0 -888.18 -2645.61 0 
-851.178 -2642.76 0 -814.177 -2639.9 0 -777.176 -2637.05 0 
-752.879 -2635.18 0 796.339 -2635.13 0 2638.76 -2635.08 0 
-6549.33 -2628.26 0 -6551.98 -2618.33 0 -1097.54 -2618.18 0 
-740.175 -2634.2 0 -703.174 -2631.34 0 -666.173 -2628.49 0 
-632.761 -2618.17 0 789.964 -2618.13 0 2642.23 -2618.08 0 
-6556.51 -2601.33 0 -1108.95 -2601.18 0 -629.171 -2616.94 0 
-592.169 -2603.92 0 -584.346 -2601.17 0 783.589 -2601.13 0 
2645.7 -2601.08 0 -6561.04 -2584.33 0 -1110.18 -2599.35 0 
-1120.36 -2584.18 0 -555.167 -2590.9 0 -536.012 -2584.17 0 
777.214 -2584.13 0 2649.18 -2584.08 0 -6565.58 -2567.33 0 
-1131.77 -2567.18 0 -518.166 -2577.89 0 -487.677 -2567.16 0 
770.839 -2567.13 0 776.869 -2583.21 0 2652.65 -2567.08 0 
-6570.11 -2550.33 0 -1143.18 -2550.18 0 -481.164 -2564.87 0 
-444.162 -2551.86 0 -439.342 -2550.16 0 764.464 -2550.13 0 
2656.12 -2550.08 0 -6574.64 -2533.33 0 -1147.18 -2544.22 0 
-1154.59 -2533.18 0 -407.16 -2538.84 0 -391.007 -2533.16 0 
758.09 -2533.13 0 2659.6 -2533.08 0 -6579.18 -2516.33 0 
-1166 -2516.18 0 -370.159 -2525.83 0 -342.672 -2516.16 0 
751.715 -2516.13 0 2663.07 -2516.08 0 -6583.71 -2499.32 0 
-1177.41 -2499.18 0 -333.157 -2512.81 0 -296.155 -2499.79 0 
-294.391 -2499.16 0 745.34 -2499.13 0 2663.92 -2511.9 0 
2666.55 -2499.07 0 -6586.32 -2489.52 0 -6588.24 -2482.32 0 
-1184.18 -2489.1 0 -1188.83 -2482.18 0 -259.153 -2486.57 0 
-247.249 -2482.15 0 738.965 -2482.13 0 739.874 -2484.55 0 
2670.02 -2482.07 0 -6592.78 -2465.32 0 -1200.24 -2465.18 0 
-222.151 -2472.84 0 -201.452 -2465.15 0 732.59 -2465.13 0 
2673.49 -2465.07 0 -6597.31 -2448.32 0 -1211.65 -2448.18 0 
-185.15 -2459.1 0 -155.655 -2448.15 0 726.215 -2448.12 0 
2676.97 -2448.07 0 -6601.84 -2431.32 0 -1221.18 -2433.98 0 
-1223.06 -2431.18 0 -148.148 -2445.36 0 -111.146 -2431.62 0 
-109.859 -2431.15 0 719.84 -2431.12 0 2680.44 -2431.07 0 
-6606.38 -2414.32 0 -1234.47 -2414.18 0 -74.1442 -2417.89 0 
-64.0621 -2414.14 0 713.465 -2414.12 0 2683.91 -2414.07 0 
-6610.91 -2397.32 0 -1245.88 -2397.17 0 -37.1424 -2404.15 0 
-33.5655 -2397.14 0 707.09 -2397.12 0 2687.39 -2397.07 0 
-6615.44 -2380.32 0 -1257.29 -2380.17 0 -27.4266 -2380.14 0 
700.715 -2380.12 0 702.879 -2385.89 0 2690.86 -2380.07 0 
-6619.98 -2363.32 0 -1258.17 -2378.86 0 -1268.7 -2363.17 0 
-23.1328 -2363.14 0 694.34 -2363.12 0 2694.33 -2363.07 0 
-6623.32 -2350.78 0 -6624.51 -2346.32 0 -1280.11 -2346.17 0 
-18.839 -2346.14 0 687.965 -2346.12 0 2697.81 -2346.06 0 
-6629.04 -2329.32 0 -1291.52 -2329.17 0 -14.5453 -2329.14 0 
681.59 -2329.12 0 2700.94 -2330.76 0 2701.28 -2329.06 0 
-6633.57 -2312.32 0 -1295.17 -2323.74 0 -1302.93 -2312.17 0 
-10.2515 -2312.14 0 675.216 -2312.12 0 2704.76 -2312.06 0 
-6638.11 -2295.31 0 -1314.34 -2295.17 0 -5.95776 -2295.14 0 
668.841 -2295.12 0 2708.23 -2295.06 0 -6642.64 -2278.31 0 
-1325.76 -2278.17 0 -1.66401 -2278.13 0 662.466 -2278.12 0 
665.883 -2287.23 0 1382.43 -2278.1 0 1405.9 -2289.58 0 
1442.01 -2278.09 0 2711.7 -2278.06 0 -6647.17 -2261.31 0 
-1332.17 -2268.61 0 -1337.18 -2261.17 0 -0.133644 -2272.07 0 
2.62974 -2261.13 0 656.091 -2261.12 0 1356.03 -2261.1 0 
[...]
POINT_DATA 18802
SCALARS Pressure double
LOOKUP_TABLE default
3.0912819036 3.0912819036 3.0912819036 3.0912819036 3.0912819036 3.0912819036 3.0912819036 3.0912819036 3.0912819036 
3.0912819036 3.0912819036 3.0912819036 3.0912819036 3.0912819036 3.0912819036 3.0912819036 3.0912819036 3.0912819036 
3.0912819036 3.0912819036 3.0912819036 3.0912819036 3.0912819036 3.0912819036 3.0912819036 3.0912819036 3.0912819036 
3.0912819036 3.0912819036 3.0912819036 3.0912819036 3.0912819036 3.0912819036 3.0912819036 3.0912819036 3.0912819036 
3.0912819036 3.0912819036 3.0912819036 3.0912819036 3.0912819036 3.0912819036 3.0912819036 3.0912819036 3.0912819036 
3.0912819036 3.0912819036 3.0912819036 3.0912819036 3.0912819036 3.0912819036 3.0912819036 3.0912819036 3.0912819036 
3.0912819036 3.0912819036 3.0912819036 3.0912819036 3.0912819036 3.0912819036 3.0912819036 3.0912819036 3.0912819036 
3.0912819036 3.0912819036 3.0912819036 3.0912819036 3.0912819036 3.0912819036 3.0912819036 3.0912819036 3.0912819036 
3.0912819036 3.0912819036 3.0912819036 3.0912819036 3.0912819036 3.0912819036 3.0912819036 3.0912819036 3.0912819036 
3.0912819036 3.0912819036 3.0912819036 3.0912819036 3.0912819036 3.0912819036 3.0912819036 3.0912819036 3.0912819036 
3.0912819036 3.0912819036 3.0912819036 3.0912819036 3.0912819036 3.0912819036 3.0912819036 3.0912819036 3.0912819036 
3.0912819036 3.0912819036 3.0912819036 3.0912819036 3.0912819036 3.0912819036 3.0912819036 3.0912819036 3.0912819036 
3.0912819036 3.0912819036 3.0912819036 3.0912819036 3.0912819036 3.0912819036 3.0912819036 3.0912819036 3.0912819036 
3.0912819036 3.0912819036 3.0912819036 3.0912819036 3.0912819036 3.0912819036 3.0912819036 3.0912819036 3.0912819036 
3.0912819036 3.0912819036 3.0912819036 3.0912819036 3.0912819036 3.0912819036 3.0912819036 3.0912819036 3.0912819036 
3.0912819036 3.0912819036 3.0912819036 3.0912819036 3.0912819036 3.0912819036 3.0912819036 3.0912819036 3.0912819036 
3.0912819036 3.0912819036 3.0912819036 3.0912819036 3.0912819036 3.0912819036 3.0912819036 3.0912819036 3.0912819036 
3.0912819036 3.0912819036 3.0912819036 3.0912819036 3.0912819036 3.0912819036 3.0912819036 3.0912819036 3.0912819036 
3.0912819036 3.0912819036 3.0912819036 3.0912819036 3.0912819036 3.0912819036 3.0912819036 3.0912819036 3.0912819036 
3.0912819036 3.0912819036 3.0912819036 3.0912819036 3.0912819036 3.0912819036 3.0912819036 3.0912819036 3.0912819036 
3.0912819036 3.0912819036 3.0912819036 3.0912819036 3.0912819036 3.0912819036 3.0912819036 3.0912819036 3.0912819036 
3.0912819036 3.0912819036 3.0912819036 3.0912819036 3.0912819036 3.0912819036 3.0912819036 3.0912819036 3.0912819036 
3.0912819036 3.0912819036 3.0912819036 3.0912819036 3.0912819036 3.0912819036 3.0912819036 3.0912819036 3.0912819036 
3.0912819036 3.0912819036 3.0912819036 3.0912819036 3.0912819036 3.0912819036 3.0912819036 3.0912819036 3.0912819036 
3.0912819036 3.0912819036 3.0912819036 3.0912819036 3.0912819036 3.0912819036 3.0912819036 3.0912819036 3.0912819036 
3.0912819036 3.0912819036 3.0912819036 3.0912819036 3.0912819036 3.0912819036 3.0912819036 3.0912819036 3.0912819036 
3.0912819036 3.0912819036 3.0912819036 3.0912819036 3.0912819036 3.0912819036 3.0912819036 3.0912819036 3.0912819036 
3.0912819036 3.0912819036 3.0912819036 3.0912819036 3.0912819036 3.0912819036 3.0912819036 3.0912819036 3.0912819036 
3.0912819036 3.0912819036 3.0912819036 3.0912819036 3.0912819036 3.0912819036 3.0912819036 3.0912819036 3.0912819036 
3.0912819036 3.0912819036 3.0912819036 3.0912819036 3.0912819036 3.0912819036 3.0912819036 3.0912819036 3.0912819036 
3.0912819036 3.0912819036 3.0912819036 3.0912819036 3.0912819036 3.0912819036 3.0912819036 3.0912819036 3.0912819036 
3.0912819036 3.0912819036 3.0912819036 3.0912819036 3.0912819036 3.0912819036 3.0912819036 3.0912819036 3.0912819036 
3.0912819036 3.0912819036 3.0912819036 3.0912819036 3.0912819036 3.0912819036 3.0912819036 3.0912819036 3.0912819036 
3.0912819036 3.0912819036 3.0912819036 3.0912819036 3.0912819036 3.0912819036 3.0912819036 3.0912819036 3.0912819036 
3.0912819036 3.0912819036 3.0912819036 3.0912819036 3.0912819036 3.0912819036 3.0912819036 3.0912819036 3.0912819036 
3.0912819036 3.0912819036 3.0912819036 3.0912819036 3.0912819036 3.0912819036 3.0912819036 3.0912819036 3.0912819036 
3.0912819036 3.0912819036 3.0912819036 3.0912819036 3.0912819036 3.0912819036 3.0912819036 3.0912819036 3.0912819036 
3.0912819036 3.0912819036 3.0912819036 3.0912819036 3.0912819036 3.0912819036 3.08524908 3.08524908 3.08524908 
3.08524908 3.08524908 3.0912819036 3.0912819036 3.0912819036 3.08524908 3.08524908 3.08524908 3.08524908 
3.08524908 3.08524908 3.08524908 3.08524908 3.0912819036 3.0912819036 3.0912819036 3.0912819036 3.08524908 
3.08524908 3.08524908 3.08524908 3.08524908 3.0912819036 3.0912819036 3.0912819036 3.08524908 3.08524908 
3.08524908 3.08524908 3.0912819036 3.0912819036 3.0912819036 3.08524908 3.08524908 3.08524908 3.08524908 
3.0912819036 3.0912819036 3.0912819036 3.08524908 3.08524908 3.08524908 3.0912819036 3.0912819036 3.0912819036 
3.0912819036 3.08524908 3.08524908 3.08524908 3.08524908 3.0912819036 3.0912819036 3.0912819036 3.08524908 
3.08524908 3.08524908 3.08524908 3.0912819036 3.0912819036 3.0912819036 3.08524908 3.08524908 3.08524908 
3.0912819036 3.0912819036 3.0912819036 3.08524908 3.08524908 3.08524908 3.08524908 3.0912819036 3.0912819036 
3.0912819036 3.0912819036 3.0912819036 3.08524908 3.08524908 3.08524908 3.08524908 3.0912819036 3.0912819036 
3.0912819036 3.0912819036 3.08524908 3.08524908 3.08524908 3.0912819036 3.0912819036 3.0912819036 3.08524908 
3.08524908 3.08524908 3.0912819036 3.0912819036 3.0912819036 3.08524908 3.08524908 3.08524908 3.08524908 
3.08524908 3.0912819036 3.0912819036 3.0912819036 3.08524908 3.08524908 3.08524908 3.0912819036 3.0912819036 
3.0912819036 3.08524908 3.08524908 3.08524908 3.0912819036 3.0912819036 3.0912819036 3.08524908 3.08524908 
3.0912819036 3.0912819036 3.0912819036 3.0912819036 3.08524908 3.08524908 3.08524908 3.0912819036 3.0912819036 
3.0912819036 3.0912819036 3.08524908 3.08524908 3.0912819036 3.0912819036 3.0912819036 3.08524908 3.08524908 
3.0912819036 3.0912819036 3.0912819036 3.0912819036 3.08524908 3.08524908 3.08524908 3.0912819036 3.0912819036 
3.0912819036 3.08524908 3.08524908 3.0912819036 3.0912819036 3.0912819036 3.08524908 3.08524908 3.0912819036 
3.0912819036 3.0973147273 3.0973147273 3.0973147273 3.0912819036 3.0912819036 3.08524908 3.08524908 3.08524908 
3.08524908 3.0912819036 3.0973147273 3.0973147273 3.0973147273 3.0973147273 3.0973147273 3.0912819036 3.0912819036 
3.08524908 3.08524908 3.0912819036 3.0973147273 3.0973147273 3.0973147273 3.0973147273 3.0973147273 3.0973147273 
3.0912819036 3.0912819036 3.08524908 3.08524908 3.0912819036 3.0973147273 3.0973147273 3.0973147273 3.0973147273 
3.0973147273 3.0973147273 3.0973147273 3.0912819036 3.0912819036 3.0912819036 3.08524908 3.08524908 3.08524908 
3.0912819036 3.0973147273 3.0973147273 3.0973147273 3.0973147273 3.0973147273 3.0973147273 3.0912819036 3.0912819036 
3.0912819036 3.08524908 3.08524908 3.0912819036 3.0973147273 3.0973147273 3.0973147273 3.0912819036 3.0912819036 
3.08524908 3.08524908 3.0912819036 3.0973147273 3.0973147273 3.0973147273 3.0912819036 3.0912819036 3.08524908 
3.08524908 3.08524908 3.0912819036 3.0973147273 3.0973147273 3.0973147273 3.0973147273 3.0912819036 3.0912819036 
3.08524908 3.08524908 3.08524908 3.0912819036 3.0912819036 3.0973147273 3.0973147273 3.0973147273 3.0912819036 
3.0912819036 3.08524908 3.08524908 3.0912819036 3.0973147273 3.0973147273 3.0912819036 3.0912819036 3.08524908 
3.08524908 3.08524908 3.0912819036 3.0973147273 3.0973147273 3.0973147273 3.0912819036 3.0912819036 3.08524908 
3.08524908 3.0912819036 3.0973147273 3.0973147273 3.0973147273 3.0973147273 3.0912819036 3.0912819036 3.08524908 
3.08524908 3.0912819036 3.0973147273 3.0973147273 3.0973147273 3.0912819036 3.0912819036 3.0912819036 3.08524908 
3.08524908 3.08524908 3.0912819036 3.0973147273 3.0973147273 3.0973147273 3.0912819036 3.0912819036 3.08524908 
3.08524908 3.08524908 3.0912819036 3.0973147273 3.0973147273 3.0912819036 3.0912819036 3.0912819036 3.08524908 
3.08524908 3.0912819036 3.0973147273 3.0973147273 3.0973147273 3.0973147273 3.0912819036 3.0912819036 3.08524908 
3.08524908 3.0912819036 3.0973147273 3.0973147273 3.0912819036 3.0912819036 3.08524908 3.08524908 3.08524908 
3.0912819036 3.0973147273 3.0973147273 3.0912819036 3.0912819036 3.08524908 3.08524908 3.0912819036 3.0973147273 
3.0973147273 3.0912819036 3.0912819036 3.08524908 3.08524908 3.08524908 3.0912819036 3.0973147273 3.0973147273 
3.0973147273 3.0973147273 3.0912819036 3.0912819036 3.08524908 3.08524908 3.08524908 3.0912819036 3.0973147273 
3.0973147273 3.0912819036 3.0912819036 3.0912819036 3.08524908 3.08524908 3.0912819036 3.0973147273 3.0973147273 
3.0912819036 3.0912819036 3.08524908 3.08524908 3.08524908 3.0912819036 3.0973147273 3.0973147273 3.0912819036 
3.0912819036 3.08524908 3.08524908 3.08524908 3.0912819036 3.0973147273 3.0973147273 3.0973147273 3.0912819036 
3.0912819036 3.08524908 3.08524908 3.0912819036 3.0973147273 3.0973147273 3.0912819036 3.0912819036 3.08524908 
3.08524908 3.0912819036 3.0973147273 3.0973147273 3.0973147273 3.0912819036 3.0912819036 3.08524908 3.08524908 
3.08524908 3.08524908 3.0912819036 3.0973147273 3.0973147273 3.0912819036 3.0912819036 3.08524908 3.08524908 
3.0912819036 3.0973147273 3.0973147273 3.0973147273 3.0912819036 3.08524908 3.08524908 3.08524908 3.08524908 
3.08524908 3.0912819036 3.08524908 3.08524908 3.0912819036 3.0973147273 3.0973147273 3.0912819036 3.08524908 
3.08524908 3.08524908 3.0912819036 3.08524908 3.08524908 3.08524908 3.0912819036 3.0973147273 3.0973147273 
3.0912819036 3.08524908 3.08524908 3.08524908 3.08524908 3.0912819036 3.08524908 3.08524908 3.0912819036 
3.0973147273 3.103347551 3.103347551 3.103347551 3.103347551 3.103347551 3.103347551 3.103347551 3.103347551 
3.103347551 3.103347551 3.0973147273 3.0973147273 3.0912819036 3.08524908 3.08524908 3.08524908 3.08524908 
3.08524908 3.0912819036 3.08524908 3.08524908 3.08524908 3.0912819036 3.0973147273 3.0973147273 3.103347551 
3.103347551 3.103347551 3.103347551 3.103347551 3.103347551 3.0973147273 3.0912819036 3.08524908 3.08524908 
3.08524908 3.08524908 3.0912819036 3.08524908 3.08524908 3.08524908 3.0912819036 3.0912819036 3.0973147273 
3.103347551 3.103347551 3.103347551 3.0973147273 3.0912819036 3.08524908 3.08524908 3.08524908 3.08524908 
3.0912819036 3.08524908 3.08524908 3.0912819036 3.0973147273 3.103347551 3.103347551 3.103347551 3.0973147273 
3.0973147273 3.0912819036 3.08524908 3.08524908 3.08524908 3.08524908 3.08524908 3.0912819036 3.08524908 
3.08524908 3.0912819036 3.0973147273 3.103347551 3.103347551 3.103347551 3.0973147273 3.0912819036 3.08524908 
3.08524908 3.08524908 3.0912819036 3.0912819036 3.08524908 3.0792162563 3.0792162563 3.0792162563 3.08524908 
3.0912819036 3.0973147273 3.103347551 3.103347551 3.0973147273 3.0912819036 3.08524908 3.08524908 3.08524908 
3.08524908 3.08524908 3.0912819036 3.08524908 3.0792162563 3.0792162563 3.0792162563 3.0792162563 3.08524908 
3.08524908 3.0912819036 3.0973147273 3.103347551 3.103347551 3.103347551 3.0973147273 3.0912819036 3.08524908 
3.08524908 3.08524908 3.08524908 3.08524908 3.0912819036 3.08524908 3.08524908 3.0792162563 3.0792162563 
3.0792162563 3.0792162563 3.0792162563 3.08524908 3.0912819036 3.0973147273 3.0973147273 3.103347551 3.103347551 
3.0973147273 3.0912819036 3.08524908 3.08524908 3.08524908 3.0912819036 3.08524908 3.0792162563 3.0792162563 
3.0792162563 3.0792162563 3.08524908 3.0912819036 3.0973147273 3.103347551 3.103347551 3.103347551 3.103347551 
3.0973147273 3.0912819036 3.08524908 3.08524908 3.08524908 3.08524908 3.0912819036 3.08524908 3.0792162563 
3.0792162563 3.0792162563 3.0792162563 3.08524908 3.0912819036 3.0973147273 3.103347551 3.103347551 3.0973147273 
3.0912819036 3.08524908 3.08524908 3.08524908 3.0912819036 3.08524908 3.0792162563 3.0792162563 3.0792162563 
3.0792162563 3.0792162563 3.08524908 3.0912819036 3.0973147273 3.103347551 3.103347551 3.103347551 3.0973147273 
3.0912819036 3.08524908 3.08524908 3.08524908 3.0912819036 3.08524908 3.0792162563 3.0792162563 3.0792162563 
3.08524908 3.0912819036 3.0973147273 3.103347551 3.103347551 3.103347551 3.0973147273 3.0912819036 3.08524908 
3.08524908 3.0912819036 3.0912819036 3.08524908 3.0792162563 3.0792162563 3.0792162563 3.0792162563 3.0792162563 
3.08524908 3.0912819036 3.0973147273 3.0973147273 3.103347551 3.103347551 3.103347551 3.0973147273 3.0912819036 
3.08524908 3.08524908 3.08524908 3.0912819036 3.08524908 3.08524908 3.0792162563 3.0792162563 3.0792162563 
3.08524908 3.0912819036 3.0973147273 3.103347551 3.103347551 3.0973147273 3.0912819036 3.0912819036 3.08524908 
3.08524908 3.08524908 3.0912819036 3.08524908 3.0792162563 3.0792162563 3.0792162563 3.08524908 3.0912819036 
3.0973147273 3.103347551 3.103347551 3.103347551 3.0973147273 3.0912819036 3.08524908 3.08524908 3.08524908 
3.0912819036 3.08524908 3.0792162563 3.0792162563 3.0792162563 3.0792162563 3.08524908 3.0912819036 3.0973147273 
3.103347551 3.103347551 3.0973147273 3.0912819036 3.08524908 3.08524908 3.08524908 3.0912819036 3.08524908 
3.0792162563 3.0792162563 3.08524908 3.0912819036 3.0973147273 3.103347551 3.103347551 3.103347551 3.0973147273 
3.0912819036 3.0912819036 3.08524908 3.08524908 3.0912819036 3.08524908 3.0792162563 3.0792162563 3.08524908 
3.0912819036 3.0973147273 3.0973147273 3.103347551 3.103347551 3.103347551 3.0973147273 3.0912819036 3.08524908 
3.08524908 3.08524908 3.0912819036 3.0912819036 3.08524908 3.0792162563 3.0792162563 3.0792162563 3.08524908 
3.0912819036 3.0973147273 3.103347551 3.103347551 3.103347551 3.0973147273 3.0912819036 3.08524908 3.08524908 
3.08524908 3.0912819036 3.08524908 3.0792162563 3.0792162563 3.0792162563 3.08524908 3.0912819036 3.0973147273 
3.103347551 3.103347551 3.0973147273 3.0973147273 3.0912819036 3.0912819036 3.08524908 3.08524908 3.08524908 
3.0912819036 3.08524908 3.0792162563 3.0792162563 3.08524908 3.08524908 3.0912819036 3.0973147273 3.103347551 
3.103347551 3.103347551 3.0973147273 3.0912819036 3.08524908 3.08524908 3.08524908 3.0912819036 3.08524908 
3.08524908 3.0792162563 3.0792162563 3.0792162563 3.08524908 3.0912819036 3.0973147273 3.103347551 3.103347551 
3.0973147273 3.0912819036 3.08524908 3.08524908 3.0912819036 3.08524908 3.0792162563 3.0792162563 3.0792162563 
3.08524908 3.0912819036 3.0973147273 3.103347551 3.103347551 3.1093803746 3.1093803746 3.1093803746 3.1093803746 
3.1093803746 3.1093803746 3.1093803746 3.103347551 3.0973147273 3.0912819036 3.08524908 3.08524908 3.08524908 
3.08524908 3.0912819036 3.08524908 3.0792162563 3.0792162563 3.08524908 3.0912819036 3.0973147273 3.103347551 
3.1093803746 3.1093803746 3.1093803746 3.103347551 3.103347551 3.0973147273 3.0912819036 3.08524908 3.08524908 
3.0912819036 3.0912819036 3.08524908 3.0792162563 3.0792162563 3.0792162563 3.08524908 3.0912819036 3.0973147273 
3.0973147273 3.103347551 3.1093803746 3.1093803746 3.1093803746 3.1093803746 3.103347551 3.0973147273 3.0912819036 
3.08524908 3.08524908 3.08524908 3.0912819036 3.08524908 3.0792162563 3.0792162563 3.0792162563 3.08524908 
3.0912819036 3.0973147273 3.103347551 3.1093803746 3.1093803746 3.1093803746 3.103347551 3.0973147273 3.0912819036 
3.08524908 3.08524908 3.0912819036 3.08524908 3.0792162563 3.0792162563 3.08524908 3.0912819036 3.0912819036 
3.0973147273 3.103347551 3.103347551 3.1093803746 3.1093803746 3.1093803746 3.1093803746 3.103347551 3.0973147273 
3.0912819036 3.08524908 3.08524908 3.08524908 3.0912819036 3.08524908 3.0792162563 3.0792162563 3.0792162563 
3.08524908 3.0912819036 3.0973147273 3.103347551 3.1093803746 3.1093803746 3.103347551 3.103347551 3.0973147273 
3.0912819036 3.08524908 3.08524908 3.08524908 3.0912819036 3.08524908 3.0792162563 3.0792162563 3.0792162563 
3.08524908 3.0912819036 3.0973147273 3.103347551 3.1093803746 3.1093803746 3.1093803746 3.1093803746 3.103347551 
3.0973147273 3.0912819036 3.08524908 3.08524908 3.0912819036 3.08524908 3.0792162563 3.0792162563 3.08524908 
3.0912819036 3.0973147273 3.103347551 3.103347551 3.1093803746 3.1093803746 3.103347551 3.0973147273 3.0912819036 
3.0912819036 3.08524908 3.08524908 3.0912819036 3.0912819036 3.08524908 3.0792162563 3.0792162563 3.0792162563 
3.08524908 3.0912819036 3.0973147273 3.0973147273 3.103347551 3.1093803746 3.1093803746 3.1093803746 3.1093803746 
3.103347551 3.0973147273 3.0912819036 3.08524908 3.08524908 3.0912819036 3.08524908 3.0792162563 3.0792162563 
3.0792162563 3.08524908 3.0912819036 3.0973147273 3.103347551 3.1093803746 3.1093803746 3.1093803746 3.1093803746 
3.103347551 3.0973147273 3.0912819036 3.08524908 3.08524908 3.08524908 3.0912819036 3.08524908 3.08524908 
3.0792162563 3.0792162563 3.08524908 3.0912819036 3.0973147273 3.103347551 3.103347551 3.1093803746 3.1093803746 
3.103347551 3.0973147273 3.0973147273 3.0912819036 3.08524908 3.08524908 3.08524908 3.0912819036 3.08524908 
3.0792162563 3.0792162563 3.0792162563 3.08524908 3.0912819036 3.0973147273 3.0973147273 3.103347551 3.1093803746 
3.1093803746 3.1093803746 3.103347551 3.0973147273 3.0912819036 3.08524908 3.08524908 3.0912819036 3.08524908 
3.0792162563 3.0792162563 3.08524908 3.0912819036 3.0912819036 3.0973147273 3.103347551 3.1093803746 3.1093803746 
3.1093803746 3.1093803746 3.103347551 3.0973147273 3.0912819036 3.08524908 3.08524908 3.0912819036 3.08524908 
3.0792162563 3.0792162563 3.08524908 3.0912819036 3.0973147273 3.103347551 3.1093803746 3.1093803746 3.103347551 
3.0973147273 3.0912819036 3.08524908 3.08524908 3.08524908 3.0912819036 3.0912819036 3.08524908 3.0792162563 
3.0792162563 3.0792162563 3.08524908 3.0912819036 3.0973147273 3.103347551 3.103347551 3.1093803746 3.1093803746 
3.1093803746 3.103347551 3.103347551 3.0973147273 3.0912819036 3.08524908 3.08524908 3.0912819036 3.08524908 
3.0792162563 3.0792162563 3.08524908 3.0912819036 3.0973147273 3.103347551 3.1093803746 3.1093803746 3.1093803746 
3.103347551 3.0973147273 3.0912819036 3.08524908 3.08524908 3.0912819036 3.08524908 3.0792162563 3.0731834326 
3.0731834326 3.0731834326 3.0731834326 3.0731834326 3.0731834326 3.0731834326 3.0792162563 3.08524908 3.0912819036 
3.0973147273 3.103347551 3.1093803746 3.1093803746 3.1093803746 3.103347551 3.0973147273 3.0912819036 3.08524908 
3.08524908 3.08524908 3.0912819036 3.08524908 3.0792162563 3.0731834326 3.0731834326 3.0731834326 3.0731834326 
3.0731834326 3.0792162563 3.08524908 3.0912819036 3.0973147273 3.103347551 3.1093803746 3.1154131983 3.1154131983 
3.1154131983 3.1154131983 3.1093803746 3.103347551 3.0973147273 3.0912819036 3.08524908 3.08524908 3.08524908 
3.0912819036 3.08524908 3.0792162563 3.0731834326 3.0731834326 3.0731834326 3.0731834326 3.0792162563 3.08524908 
3.0912819036 3.0973147273 3.0973147273 3.103347551 3.103347551 3.1093803746 3.1154131983 3.1154131983 3.1154131983 
3.1154131983 3.1154131983 3.1154131983 3.1093803746 3.103347551 3.0973147273 3.0912819036 3.08524908 3.08524908 
3.0912819036 3.08524908 3.0792162563 3.0731834326 3.0731834326 3.0792162563 3.08524908 3.0912819036 3.0973147273 
3.103347551 3.1093803746 3.1154131983 3.1154131983 3.1154131983 3.1093803746 3.1093803746 3.103347551 3.0973147273 
3.0912819036 3.08524908 3.08524908 3.08524908 3.0912819036 3.08524908 3.0792162563 3.0731834326 3.0731834326 
3.0731834326 3.0792162563 3.0792162563 3.08524908 3.0912819036 3.0973147273 3.103347551 3.1093803746 3.1093803746 
3.1154131983 3.1154131983 3.1154131983 3.1154131983 3.1093803746 3.103347551 3.103347551 3.0973147273 3.0912819036 
3.08524908 3.08524908 3.0912819036 3.0912819036 3.08524908 3.08524908 3.0792162563 3.0731834326 3.0731834326 
3.0731834326 3.0731834326 3.0792162563 3.08524908 3.0912819036 3.0973147273 3.103347551 3.1093803746 3.1154131983 