# vtk DataFile Version 4.2
vtk output
ASCII
DATASET UNSTRUCTURED_GRID
POINTS 1740 double
2144.07 -94.44003 0 2911 0 0 16.54298 -37.82236 0 
5.09149 -21.30132 0 1.27433 -10.75385 0 0 0 0 
2.54575 15.14293 0 6.36291 23.76126 0 14.00014 34.89063 0 
30.50239 50.70793 0 33.39435 -52.93479 0 2050.91 -103.7862 0 
60.1465 -69.72165 0 88.83633 -83.2817 0 118.7656 -94.71113 0 
153.4168 -105.7022 0 199.5806 -117.771 0 261.4466 -130.7139 0 
345.846 -144.1892 0 460.3522 -157.0592 0 608.4185 -167.1903 0 
783.2313 -172.4016 0 941.0559 -172.4533 0 1063.409 -170.1096 0 
1164.153 -166.8746 0 1263.449 -162.682 0 1375.468 -156.8941 0 
1513.293 -148.414 0 1665.281 -137.5317 0 1791.864 -127.3721 0 
2195.451 -89.09491 0 2273.924 -80.67077 0 2383.731 -68.3513 0 
2517.64 -52.47337 0 2649.227 -35.9232 0 2740.773 -23.82991 0 
2804.387 -15.13419 0 2848.802 -8.916218 0 2881.944 -4.196067 0 
56.61447 67.79801 0 84.09687 81.25172 0 112.4783 92.48395 0 
142.1748 102.3504 0 174.8563 111.6168 0 213.124 120.8806 0 
260.3759 130.5151 0 324.6539 141.1779 0 418.1422 152.9178 0 
535.6656 162.9871 0 690.9154 170.4255 0 902.6513 172.7852 0 
1100.32 169.0517 0 1270.99 162.3262 0 1462.794 151.6837 0 
1631.287 140.0952 0 1747.993 131 0 1922.788 115.9027 0 
2069.56 101.951 0 2128.804 96.0021 0 2297.147 78.11721 0 
2414.379 64.80104 0 2554.023 47.99319 0 2673.693 32.73885 0 
2757.97 21.50315 0 2814.297 13.7575 0 2852.02 8.460961 0 
2882.272 4.148909 0 1791.052 127.4402 0 1366.894 157.3738 0 
1444.38 -152.8302 0 1547.039 146.1296 0 1589.287 -143.1614 0 
1878.731 119.8675 0 1997.072 108.9828 0 1185.654 166.0472 0 
1882.536 -119.5292 0 1971.323 -111.4145 0 1684.777 136.0292 0 
2099.317 -98.9855 0 2234.809 84.9091 0 2181.695 90.53914 0 
1728.573 -132.5703 0 1718.815 133.3509 0 1834.825 123.7132 0 
1960.305 112.4444 0 2033.69 105.4648 0 2099.184 98.99892 0 
2214.291 -71.538280735 396.8421 2955.512 17.697509358 396.8421 158.0786 -25.198628398 396.8421 
147.0109 -9.3628076282 396.8421 143.3217 0.77085143185 396.8421 142.09 11.120492649 396.8421 
144.5505 25.723509693 396.8421 148.2398 34.050431553 396.8421 155.621 44.821557498 396.8421 
171.5701 60.166937806 396.8421 174.3652 -39.641173408 396.8421 2124.254 -80.53706864 396.8421 
200.2206 -55.630084729 396.8421 227.9488 -68.498651901 396.8421 256.8748 -79.307850137 396.8421 
290.3647 -89.665004171 396.8421 334.981 -100.98699095 396.8421 394.7733 -113.05405093 396.8421 
476.3434 -125.50065922 396.8421 587.0114 -137.19952254 396.8421 730.1145 -146.10375328 396.8421 
899.0676 -150.19167287 396.8421 1051.602 -149.47841575 396.8421 1169.853 -146.6842744 396.8421 
1267.221 -143.16432175 396.8421 1363.188 -138.76285704 396.8421 1471.452 -132.82142181 396.8421 
1604.657 -124.26829354 396.8421 1751.55 -113.44971927 396.8421 1873.891 -103.45721857 396.8421 
2263.949 -66.409680266 396.8421 2339.792 -58.350893026 396.8421 2445.918 -46.614308336 396.8421 
2575.338 -31.563291687 396.8421 2702.515 -15.954252372 396.8421 2790.992 -4.5935079916 396.8421 
2852.473 3.5544791598 396.8421 2895.4 9.3707900823 396.8421 2927.431 13.78079146 396.8421 
196.807 76.80111978 396.8421 223.3682 89.94026623 396.8421 250.7983 100.94413473 396.8421 
279.4994 110.63943506 396.8421 311.0855 119.77433139 396.8421 348.0705 128.94012452 396.8421 
393.7383 138.51659704 396.8421 455.8617 149.18403326 396.8421 546.2162 161.05582146 396.8421 
659.8003 171.43940441 396.8421 809.846 179.46408158 396.8421 1014.485 182.81625237 396.8421 
1205.528 180.11582068 396.8421 1370.477 174.31206381 396.8421 1555.851 164.69589127 396.8421 
1718.696 153.9724752 396.8421 1831.49 145.44537033 396.8421 2000.426 131.13696917 396.8421 
2142.278 117.77983275 396.8421 2199.537 112.05142637 396.8421 2362.236 94.72614352 396.8421 
2475.539 81.737474452 396.8421 2610.501 65.248805128 396.8421 2726.16 50.203896405 396.8421 
2807.613 39.079032773 396.8421 2862.05 31.39021137 396.8421 2898.509 26.123899473 396.8421 
2927.749 21.831511545 396.8421 1873.106 142.08731427 396.8421 1463.165 169.87638291 396.8421 
1538.054 -128.70531672 396.8421 1637.272 159.58003126 396.8421 1678.104 -119.0288132 396.8421 
1957.846 134.91069761 396.8421 2072.22 124.52640833 396.8421 1288 177.57117949 396.8421 
1961.524 -95.797719235 396.8421 2047.334 -87.914250352 396.8421 1770.393 150.17056682 396.8421 
2171.038 -75.909700817 396.8421 2301.989 101.32271794 396.8421 2250.655 106.7751905 396.8421 
1812.721 -108.55890449 396.8421 1803.29 147.65700205 396.8421 1915.411 138.56053192 396.8421 
2036.686 127.8368777 396.8421 2107.61 121.15457279 396.8421 2170.909 114.93950366 396.8421 
2284.511 -54.60220989 793.6842 3000.027 30.613159369 793.6842 299.6143 -15.874838129 793.6842 
288.9304 -0.69072760765 793.6842 285.3691 9.0418730872 793.6842 284.1801 18.993816391 793.6842 
286.5551 33.055298731 793.6842 290.1167 41.084031061 793.6842 297.2417 51.481391052 793.6842 
312.6379 66.318956461 793.6842 315.336 -29.693759875 793.6842 2197.597 -63.298786107 793.6842 
340.2947 -44.955625044 793.6842 367.0612 -57.206887014 793.6842 394.9839 -67.471786378 793.6842 
427.3123 -77.281425284 793.6842 470.3812 -87.969663045 793.6842 528.0998 -99.308822056 793.6842 
606.8411 -110.9222341 793.6842 713.6708 -121.70353991 793.6842 851.8104 -129.68761382 793.6842 
1014.904 -132.98162824 793.6842 1162.147 -131.76814408 793.6842 1276.298 -128.70551858 793.6842 
1370.288 -125.03429873 793.6842 1462.927 -120.54060839 793.6842 1567.436 -114.55877579 793.6842 
1696.021 -106.04272868 793.6842 1837.82 -95.370444947 793.6842 1955.917 -85.58075157 793.6842 
2332.447 -49.65685009 793.6842 2405.659 -41.90075859 793.6842 2508.105 -30.634751644 793.6842 
2633.037 -16.233227797 793.6842 2755.801 -1.345672253 793.6842 2841.209 9.4628711493 793.6842 
2900.561 17.202163212 793.6842 2941.997 22.720781391 793.6842 2972.917 26.90190757 793.6842 
336.9995 82.438129712 793.6842 362.6396 95.199496521 793.6842 389.1182 105.90920446 793.6842 
416.8239 115.36445371 793.6842 447.3145 124.29200977 793.6842 483.0167 133.27120767 793.6842 
527.1009 142.68079772 793.6842 587.0697 153.20633458 793.6842 674.2905 165.00100878 793.6842 
783.9349 175.44455351 793.6842 928.7766 183.73680011 793.6842 1126.317 187.6864743 793.6842 
1310.735 185.70011837 793.6842 1469.963 180.58785033 793.6842 1648.908 171.79599276 793.6842 
1806.105 161.81585549 793.6842 1914.987 153.80522371 793.6842 2078.064 140.26290224 793.6842 
2214.996 127.53490947 793.6842 2270.269 122.05551184 793.6842 2427.326 105.4190058 793.6842 
2536.699 92.891578667 793.6842 2666.98 76.930658577 793.6842 2778.628 62.318185012 793.6842 
2857.255 51.486522755 793.6842 2909.806 43.988375285 793.6842 2945.001 38.847401493 793.6842 
2973.224 34.65416924 793.6842 1955.16 150.63699409 793.6842 1559.437 176.55992418 793.6842 
1631.729 -110.4495348 793.6842 1727.505 167.05067557 793.6842 1766.921 -100.86291474 793.6842 
2036.96 143.84483467 793.6842 2147.368 133.97271069 793.6842 1390.347 183.49460377 793.6842 
2040.511 -78.110711409 793.6842 2123.346 -70.448250806 793.6842 1856.009 158.25084911 793.6842 
2242.759 -58.823625101 793.6842 2369.167 111.76395595 793.6842 2319.614 116.99877506 793.6842 
1896.869 -90.572036619 793.6842 1887.765 155.88792884 793.6842 1995.998 147.30261378 793.6842 
2113.066 137.12514013 793.6842 2181.531 130.75739204 793.6842 2242.634 124.81947976 793.6842 
2354.732 -42.573762009 1190.526 3044.539 39.256958315 1190.526 441.15 -9.0758151296 1190.526 
430.8497 5.485911265 1190.526 427.4164 14.829511174 1190.526 426.2701 24.391065019 1190.526 
428.5601 37.913002078 1190.526 431.9934 45.640150344 1190.526 438.8627 55.654249878 1190.526 
453.7057 69.959780175 1190.526 456.3069 -22.310153456 1190.526 2270.94 -50.977164656 1190.526 
480.3688 -36.903467851 1190.526 506.1737 -48.597922561 1190.526 533.0934 -58.380130142 1190.526 
564.26 -67.71216096 1190.526 605.7815 -77.857841409 1190.526 661.4265 -88.588253213 1190.526 
737.3385 -99.526305277 1190.526 840.33 -109.5951515 1190.526 973.5064 -116.90918859 1190.526 
1130.74 -119.68151678 1190.526 1272.693 -118.19001725 1190.526 1382.742 -115.01498384 1190.526 
1473.356 -111.30976193 1190.526 1562.666 -106.82884633 1190.526 1663.42 -100.91176 1190.526 
1787.385 -92.54245429 1190.526 1924.09 -82.110141355 1190.526 2037.944 -72.578381392 1190.526 
2400.946 -37.800813853 1190.526 2471.527 -30.322795857 1190.526 2570.292 -19.475761478 1190.526 
2690.735 -5.6328340192 1190.526 2809.091 8.6537202121 1190.526 2891.43 19.012930339 1190.526 
2948.647 26.424483249 1190.526 2988.597 31.706572276 1190.526 3018.403 35.707067867 1190.526 
477.1918 85.522239954 1190.526 501.9109 97.860092495 1190.526 527.4382 108.22747343 1190.526 
554.1485 117.39163055 1190.526 583.5435 126.05524849 1190.526 617.963 134.78152466 1190.526 
660.4633 143.9421073 1190.526 718.2775 154.2142862 1190.526 802.3645 165.77121854 1190.526 
908.0698 176.07647311 1190.526 1047.707 184.38347815 1190.526 1238.151 188.60873981 1190.526 
1415.942 187.06618782 1190.526 1569.449 182.44057563 1190.526 1741.965 174.2799384 1190.526 
1893.514 164.90980827 1190.526 1998.484 157.34536129 1190.526 2155.702 144.50050463 1190.526 
2287.714 132.38051168 1190.526 2341.001 127.15161165 1190.526 2492.415 111.24125847 1190.526 
2597.858 99.231474429 1190.526 2723.46 83.899668157 1190.526 2831.095 69.837491263 1190.526 
2906.899 59.399865792 1190.526 2957.56 52.168277468 1190.526 2991.49 47.207298289 1190.526 
3018.699 43.159300524 1190.526 2037.214 154.34596168 1190.526 1655.708 178.71869457 1190.526 
1725.403 -96.867003593 1190.526 1817.738 169.83401521 1190.526 1855.738 -87.472810742 1190.526 
2116.075 147.90371585 1190.526 2222.516 138.51567231 1190.526 1492.694 185.09384283 1190.526 
2119.498 -65.323730718 1190.526 2199.357 -57.896215496 1190.526 1941.625 161.54705726 1190.526 
2314.479 -46.651197415 1190.526 2436.346 117.31492156 1190.526 2388.573 122.3208106 1190.526 
1981.017 -77.434243857 1190.526 1972.24 159.31484113 1190.526 2076.584 151.18520362 1190.526 
[...]
POINT_DATA 1740
FIELD FieldData 1
Pressure 1 1740 double
3.1037781876 3.018565639 3.009368507 2.9862192932 2.9772592227 2.9556278784 2.9698419919 2.987661498 3.0189301225 
3.0321596643 3.0106266508 3.107599155 3.0344108844 3.0489483389 3.0659582628 3.0646037698 3.0820727518 3.087059502 
3.1083044831 3.1127338402 3.1312739873 3.1393392012 3.1408751379 3.1463348394 3.1408440222 3.1369490586 3.1338444606 
3.1302569785 3.1237162971 3.1181891243 3.1012387675 3.0979641959 3.0924374445 3.0846008511 3.0738336264 3.0640407538 
3.0539798761 3.0456444637 3.0364735498 3.0683695158 3.0807719897 3.093561619 3.1065317388 3.1122236938 3.1200414282 
3.1272054564 3.1351922274 3.1512246528 3.1640156829 3.18025457 3.1913322499 3.1983236028 3.2044811258 3.2099701843 
3.2141602116 3.2173842523 3.2182228225 3.2304220857 3.0994217755 3.0869980063 3.0814612488 3.0726431962 3.0628920369 
3.052485914 3.0417674002 3.0346320691 3.0322656199 3.2172768023 3.2076569776 3.13262215 3.2115226313 3.1269299888 
3.2181426535 3.2198077116 3.2052250528 3.1145292175 3.1109470828 3.2153813442 3.1055821616 3.089749559 3.0865323996 
3.1207589078 3.2169714778 3.2176482198 3.21904946 3.2195998892 3.1665185387 3.1007413915 3.0235606883 3.0267316994 
3.0002011155 3.0079432754 2.9853741911 2.9952377938 3.0077393511 3.0350352344 3.0535886621 3.035704681 3.1049298404 
3.0554431794 3.0680061165 3.0815107647 3.0851438522 3.100799679 3.1099112765 3.1231980169 3.1280248394 3.1383698495 
3.1418797663 3.1451916583 3.1451612755 3.1402519208 3.1359195825 3.1306444693 3.1266413512 3.1205787644 3.1152838478 
3.0984529982 3.0945115923 3.0889380404 3.0812416445 3.070408271 3.0606031366 3.0509243133 3.0435957409 3.0279736602 
3.086417709 3.1068776121 3.118909248 3.127437445 3.1361630602 3.1409524859 3.1465054733 3.1564762832 3.1687154215 
3.1783556276 3.187196943 3.1951737834 3.2018117027 3.2083420094 3.2114913809 3.2144973744 3.2176066189 3.2200152997 
3.1080435231 3.0921032145 3.0899651285 3.0843567185 3.0761818842 3.0658198058 3.0556858867 3.045245552 3.0389700104 
3.0394254784 3.2182446903 3.2099624943 3.1295652407 3.2140897908 3.1232142182 3.2195935475 3.2206048526 3.2069229951 
3.1115415591 3.1079895543 3.215999384 3.1030442091 3.0919230653 3.090074163 3.1181068943 3.2168280063 3.2183496555 
3.2199698877 3.2264016514 3.0848709169 3.0985892229 3.0237713429 3.0280301347 3.0011196334 3.0029504633 2.9841897283 
2.9976461909 3.0106904661 3.038894355 3.0603919616 3.0437231306 3.1026161591 3.0583794253 3.0775229274 3.0955282804 
3.1019518222 3.1144461618 3.1229161516 3.1351416038 3.1410126442 3.1477656861 3.1494687981 3.1482375895 3.1459660927 
3.1395643441 3.1342867504 3.1290462412 3.1237466148 3.1183932532 3.1133775746 3.0962990252 3.0925870141 3.0869285568 
3.0792804756 3.0685381749 3.0585357656 3.0494584654 3.0422718736 3.0292764274 3.0926445691 3.1144986091 3.1332362743 
3.142076047 3.1538855297 3.1615768854 3.1715756342 3.1759622547 3.1842186618 3.1941711373 3.199481266 3.2051128603 
3.2079336523 3.2147763018 3.2173509853 3.2182682705 3.2204199705 3.2229782477 3.0917511438 3.0954768716 3.0909848605 
3.0856034546 3.0778531037 3.067140662 3.0572401563 3.0474532593 3.0400333085 3.0416143416 3.2210854463 3.2162406867 
3.1269551163 3.2183560205 3.1210003318 3.221828377 3.2208830143 3.212163627 3.1095841793 3.1058486627 3.2188868584 
3.1008942323 3.093701323 3.0956577027 3.1158720946 3.2193879378 3.2213000811 3.2230513561 3.1139375656 3.0961943404 
3.0970198004 3.0240739233 3.0290654009 3.001330288 3.0033028128 2.9823353103 2.9928727863 3.0067169748 3.039247404 
3.0608389361 3.0436600269 3.1011126081 3.0639259736 3.081325098 3.1003945977 3.1091578723 3.1212304192 3.1296092816 
3.1413357798 3.148018166 3.1539790125 3.1539150047 3.1511253947 3.1466703375 3.1397885371 3.1339639552 3.1283472437 
3.122591695 3.1167759363 3.1117659649 3.0948509668 3.0911434222 3.0857767211 3.0781766904 3.0676528944 3.0576488909 
3.049074724 3.0418256249 3.0296887829 3.0964018906 3.1194773588 3.135572021 3.1477119464 3.1548410537 3.1659102583 
3.1783167687 3.1883778302 3.1961672476 3.2059999217 3.2115124074 3.2158597963 3.2169544664 3.222660034 3.2249559577 
3.2249691701 3.2262691711 3.2282589765 3.091409531 3.0912155057 3.0894461492 3.0845982583 3.0770832403 3.0669337402 
3.0571733847 3.0478017744 3.0401194979 3.0417162859 3.2263559149 3.2239510597 3.125967378 3.2254216389 3.1195496213 
3.2268387154 3.1122657596 3.2202670488 3.1080873616 3.1042628295 3.2253843575 3.099235346 3.0912543625 3.0917871682 
3.1141927251 3.225473 3.2267483739 3.228573679 3.0889167919 3.0923613852 3.0961336531 3.0235795843 3.0311645977 
3.0018331354 3.0086419386 2.9869425985 2.9948075459 3.0078789976 3.0416642216 3.0623362442 3.0448809055 3.100132629 
3.0661371916 3.0836020501 3.100486109 3.1104899162 3.1230012909 3.133564113 3.1439350141 3.1513971685 3.1573619542 
3.1558450695 3.1518913072 3.1460381537 3.1390350644 3.1329057958 3.127071447 3.1215162125 3.1157669563 3.1105472545 
3.0939137276 3.0902389541 3.0849822595 3.0774737387 3.0672036367 3.0573796276 3.0489793363 3.0416399173 3.030060503 
3.0981338474 3.121713745 3.1371728281 3.150067761 3.1593530494 3.170264247 3.1814552925 3.1878100467 3.1987813256 
3.2111986114 3.219873147 3.2245596381 3.2255588059 3.2304116477 3.2322405892 3.2319169675 3.2327670597 3.2395191916 
3.0878198997 3.0889637709 3.0873691842 3.0825146411 3.0749659795 3.065233855 3.0557200451 3.046551474 3.0389720278 
3.0407542688 3.233055089 3.2319379672 3.1248971318 3.2323013301 3.1185394262 3.2328502192 3.0794861698 3.2283865669 
3.1069205202 3.1030747849 3.2321721264 3.0981043192 3.0891407282 3.0891362984 3.1131510381 3.2322768394 3.233439598 
3.1246951321 3.0858514825 3.0886969849 3.0954829054 3.022639385 3.0323131962 3.0029488924 3.0105043687 2.9882833574 
2.9963838739 3.0096872346 3.0432305977 3.0648805138 3.0454520944 3.0993638512 3.0669404833 3.0851176479 3.1011145766 
3.1117238414 3.1240410252 3.1355785975 3.1459488902 3.1536497621 3.15972455 3.1571554225 3.1521520275 3.1452028341 
3.1382710853 3.1319632438 3.1260444861 3.1205668778 3.1148959443 3.1097569635 3.0932722424 3.0896625962 3.0844496097 
3.0770565746 3.066875599 3.0571316288 3.048814297 3.0414662753 3.0302629305 3.1003526631 3.1242047914 3.1396788023 
3.1525612075 3.1617082882 3.1731785115 3.185605689 3.1933381859 3.2047552287 3.2162718653 3.2268809675 3.2323560351 
3.2340051764 3.238965152 3.2406603161 3.2394764397 3.2395673335 3.210966686 3.085741171 3.0857712263 3.0841538445 
3.079389688 3.0720235407 3.0628154492 3.0536038322 3.0448405825 3.0374200951 3.0393808591 3.2397108733 3.2401201681 
3.1239410593 3.2401177004 3.1176048113 3.2377031731 3.0829379332 3.2366259583 3.1060756714 3.1022672007 3.239137974 
3.0975496708 3.0859977726 3.0859535487 3.1124053148 3.2392356454 3.240297135 3.0757133228 3.0842022358 3.0856853814 
3.0951850702 3.0220355642 3.0325469721 3.0029500108 3.0103610407 2.9883395382 2.996407594 3.010044525 3.0437802389 
3.0659518242 3.0454981186 3.0991589801 3.0671067772 3.085292036 3.1011777833 3.1123279478 3.1245306606 3.1367057489 
3.1468315706 3.1547297485 3.1610951612 3.157859844 3.1521533932 3.1444815005 3.1378467597 3.1314345616 3.1256292969 
3.1199557878 3.1145558235 3.1094921557 3.0930658903 3.0895355853 3.0842956277 3.0770040664 3.0668360957 3.0570417065 
3.0487065948 3.0413967839 3.0302945619 3.1016660147 3.1257459273 3.1415555372 3.1545339733 3.1640627425 3.1756237831 
3.1879632303 3.1966060503 3.2087035898 3.2209506924 3.2322809113 3.2395080978 3.2418643219 3.2478612434 3.2497229394 
3.2480963572 3.2474069285 3.0991909799 3.0843803192 3.0838088793 3.0812899887 3.0768997168 3.0698752002 3.0609682259 
3.0520457803 3.0435688094 3.0363385358 3.0387257541 3.2473873299 3.2486977629 3.1233516853 3.2489555308 3.1171190053 
3.2435466787 3.0842154935 3.244564162 3.1057556413 3.1019449109 3.2474019368 3.0973381274 3.0831435964 3.083425089 
3.1121512136 3.2471131256 3.2477095806 3.0836896742 3.0841145675 3.0839328439 3.0953137777 3.0221270758 3.0327173588 
3.0029267852 3.010653724 2.9889620413 2.9966568535 3.0102804787 3.0441969874 3.0665420964 3.0452667637 3.0993186923 
3.0668722206 3.0851736115 3.1010660332 3.1125412417 3.1247222745 3.1371625439 3.14708106 3.1550361367 3.1617187985 
3.1581203434 3.1520285523 3.1440710279 3.1377244954 3.1312489353 3.1255805826 3.119858842 3.1146580089 3.1096198205 
3.0932350656 3.0897081115 3.0844547469 3.0772172759 3.0669843499 3.0571325443 3.0487407899 3.0414798772 3.0301788342 
3.1026792427 3.1270143071 3.1430021285 3.1561852285 3.165798116 3.1775508197 3.189962495 3.199274012 3.2119611344 
3.2245131539 3.2363369672 3.2447147879 3.2484096472 3.2545682781 3.2572925001 3.2568722224 3.2558906216 3.0952699028 
3.0840324906 3.0832950583 3.0804942708 3.0763703581 3.0695351679 3.0605203791 3.0517805875 3.0434381386 3.0363259492 
3.0389991456 3.2557742944 3.2567610748 3.1232592221 3.257292194 3.1170804363 3.2526867682 3.0844845669 3.2514100326 
3.105897494 3.1020640121 3.2561333124 3.0974351827 3.0821388872 3.0828313582 3.1122830947 3.2556527666 3.2562804229 
3.0868945127 3.0844249452 3.0839496577 3.0956385433 3.0224296882 3.0329176855 3.0029086348 3.0105669823 2.9894752578 
2.9972605377 3.0108876798 3.0449170997 3.0673087622 3.0448440641 3.0996176583 3.0663882182 3.0847090298 3.1007398454 
3.1125012749 3.1244200426 3.1370770959 3.1470260176 3.1552043051 3.1619573966 3.1581733216 3.1519532371 3.1440205723 
3.1379008461 3.1313859314 3.1258217219 3.1200389852 3.1149451605 3.1098997677 3.0935513637 3.0900413736 3.084745247 
3.0775451157 3.0671833414 3.0572842258 3.0488261927 3.0416390424 3.0298147443 3.1038853157 3.1284014501 3.1444734582 
3.1578790352 3.167562399 3.1794992803 3.1919597744 3.2016875283 3.2149489541 3.2277197811 3.239861979 3.249164175 
3.2536225035 3.2605585695 3.2646032083 3.2644067378 3.2637579039 3.099541945 3.0830439812 3.0821136866 3.0793030966 
3.0753176386 3.0686446266 3.0598146012 3.05139457 3.0430428916 3.036185169 3.0391353466 3.2639209386 3.2629718616 
3.1234579648 3.2642282695 3.117288471 3.2608862708 3.0850466993 3.2568797851 3.1061641061 3.1022884117 3.2639983386 
3.097759502 3.0808294479 3.0815183794 3.1126364928 3.2635974821 3.26480736 3.0867773033 3.0835960773 3.0827512183 
3.0960758929 3.0225347601 3.0330482495 3.0028320779 3.0104005804 2.9898623761 2.99792216 3.0116124184 3.045613883 
3.0681868563 3.0441798246 3.1001192792 3.0656333403 3.0839261566 3.1000034267 3.1118097571 3.1237237659 3.1365373198 
3.1465064555 3.1553176443 3.1614803626 3.1578717724 3.1517916116 3.1441737766 3.1381341729 3.1316331411 3.1261583557 
3.1203255865 3.1152801877 3.1102996233 3.093999756 3.0904526323 3.0851119549 3.0779135168 3.0674331851 3.0575276359 
3.0489624822 3.0418271886 3.0294781744 3.1052156059 3.1299153229 3.1460154617 3.1596555679 3.1694124421 3.1815336381 
3.1941163761 3.2040903316 3.2178790594 3.2307878135 3.2431498236 3.2530528352 3.2580407586 3.2654093879 3.2701992214 
3.2703492978 3.2703791109 3.1080070628 3.0794173578 3.0785379812 3.0759831748 3.0721830545 3.0658167138 3.0574287903 
3.0494108676 3.041277633 3.0347548706 3.0380503606 3.2711151117 3.268235397 3.1237254771 3.2704772304 3.1176006678 
3.2690015904 3.0798707489 3.2614226133 3.1065631047 3.1027846834 3.2702372026 3.098213787 3.0775170766 3.0780522071 
3.1129815201 3.2701512096 3.2713349288 3.0837938404 3.0795092273 3.0792602543 3.096566039 3.0225948259 3.0330648851 
3.0028770579 3.0102748888 2.9901496157 2.9987947925 3.0124641926 3.0462974825 3.0690590212 3.0432415208 3.1006156245 
3.0646297737 3.0830614276 3.098541244 3.1102126998 3.1224384647 3.1352738577 3.1458665904 3.1543296382 3.161107522 
3.1577099036 3.1518249708 3.1444475091 3.1384418499 3.1319607551 3.1265092902 3.1208071731 3.1157012651 3.1107017539 
3.0944599567 3.0908698576 3.0855029284 3.078269251 3.0677080986 3.0577804134 3.0491227621 3.0419917331 3.029509333 
3.1065623113 3.1314583607 3.147577644 3.1614804054 3.1712860753 3.1836021687 3.1963610208 3.2064776468 3.2207333486 
3.2337591104 3.2462975348 3.2564649641 3.2618733809 3.269479657 3.2749739188 3.2756302739 3.2760162251 3.1198439505 
3.075816387 3.0749262728 3.0723269948 3.0687261881 3.062561121 3.0543981731 3.0466002683 3.0387480137 3.0326309049 
3.03600518 3.2764306299 3.272533104 3.1241610002 3.2752779282 3.118040822 3.2749980642 3.0757128609 3.2653504733 
3.1069751388 3.1033284233 3.2755648585 3.0987018891 3.0737613061 3.0743354481 3.1133900079 3.2755807162 3.2768082501 
3.0799800743 3.0752161907 3.0760807024 3.0969902938 3.0225978682 3.0329128002 3.002961068 3.0102642425 2.9903485561 
2.9997807975 3.0133556839 3.0469448269 3.0699553435 3.0421596497 3.1010205071 3.063541409 3.082063765 3.0970723397 
3.1086181565 3.1210452546 3.1338674435 3.1451251957 3.1537907906 3.1603406764 3.1574568621 3.1519957865 3.1448539475 
3.1388253611 3.132413959 3.1269333516 3.1214026332 3.1161184824 3.111110392 3.0948542327 3.0912302467 3.0858712842 
3.078560031 3.067971211 3.0579854216 3.0492732318 3.0420985579 3.0298454192 3.1079193262 3.1330188112 3.1491477732 
3.1633281857 3.1731610102 3.1856772575 3.1986299362 3.2088408992 3.2235030269 3.2366077175 3.2493279096 3.2596405556 
3.2653098227 3.2730995441 3.2787538432 3.2800028868 3.2803605953 3.1322096042 3.0728832134 3.0719534533 3.0691179065 
3.0654944728 3.0595255692 3.0515055805 3.0438687879 3.0361594887 3.0305029818 3.0336538591 3.280943397 3.2762572866 
3.1246945631 3.2795019166 3.1185448304 3.2800917768 3.0727707707 3.2688941453 3.107383752 3.1037991682 3.2800728533 
3.0990992279 3.0705112824 3.0711753192 3.1137830559 3.2801399301 3.2815773985 3.0772083722 3.0730647998 3.0734800039 
3.0973452718 3.0221050387 3.0327001036 3.003070416 3.0105330909 2.9905067614 3.0008581523 3.0142576877 3.0475888223 
3.0708552436 3.0410312765 3.1013629784 3.0625653535 3.0810543854 3.0958238889 3.1072571521 3.1198468798 3.1326324911 
3.1444589219 3.1533962176 3.1598065928 3.1575569472 3.1524040841 3.1455985289 3.1394335951 3.1330640554 3.1275270829 
3.1220346124 3.1165834458 3.111523316 3.0951884691 3.0915309562 3.0861878955 3.0787853309 3.068203836 3.0581559386 
3.0494240844 3.04217244 3.0305382054 3.10928782 3.1345851633 3.1507248004 3.1651899956 3.1750335603 3.1877252772 
3.2008891506 3.2111537829 3.2261842975 3.2393168758 3.2522001806 3.2625515745 3.2684893458 3.276406914 3.2821153553 
3.283825397 3.284223335 3.1283662754 3.0693026182 3.0681453577 3.0656797231 3.062150268 3.0562013798 3.0484744248 
3.0410647116 3.0334563243 3.0281901501 3.031187642 3.2849423334 3.279560406 3.1253170135 3.2830211862 3.1190726309 
3.2839668066 3.0702823373 3.2721670826 3.1078266418 3.1042592229 3.2838828257 3.0994147568 3.0672040546 3.067582932 
3.1141885974 3.2839701996 3.2858019035 3.0742229608 3.0702282577 3.069045319 3.0976905745 3.0219504636 3.0325767364 
3.0034725151 3.0109974081 2.9907281038 3.002063328 3.0153540964 3.0487405687 3.07193309 3.0402456343 3.1016770709 
3.0618796225 3.0802916231 3.0949971606 3.1063438297 3.1190733768 3.1316882447 3.1441092663 3.1531135782 3.1597472688 
3.1580303246 3.1531904963 3.1467081329 3.1403130333 3.1339127153 3.1282907536 3.122721491 3.117187622 3.1119947941 
3.0955238822 3.0918036043 3.0864768786 3.0789778384 3.0684034268 3.0582732077 3.0495779816 3.0421959286 3.0312851804 
3.1107507508 3.1361719691 3.1522967545 3.1670272539 3.1768748316 3.189723563 3.2030894826 3.2133336506 3.2286361615 
3.2417458349 3.2547806415 3.2650247213 3.2712605771 3.2793383977 3.284981487 3.2871443205 3.2878065212 3.1080956728 
3.0651846287 3.0645691159 3.0623232301 3.0588973247 3.05313049 3.0458839469 3.0387480353 3.0315037167 3.0265292105 
3.0294310533 3.2885865676 3.2825130765 3.1260426983 3.2861867065 3.1197964407 3.2868778372 3.0667720218 3.2750719974 
3.1082602705 3.104714932 3.2873259977 3.0997049525 3.0635968139 3.0641342671 3.1146660457 3.2874216979 3.2896303684 
3.0729873454 3.0659605433 3.064873142 3.0980682717 3.0226199024 3.0324390275 3.0036896315 3.011351617 2.9910641755 
3.0033037381 3.0165906266 3.0499245325 3.0731947967 3.0396177774 3.1020998237 3.061237231 3.0796174676 3.0946168093 
3.1059068207 3.1186922126 3.1309526555 3.144073699 3.1530045532 3.1599272739 3.1592089263 3.1545067543 3.1481867947 
3.1414034588 3.1348752363 3.1289878261 3.1236216977 3.1178544539 3.1125639505 3.0958692487 3.0920173256 3.0867385072 
3.0791223125 3.0685647833 3.0583055989 3.0496116524 3.042093004 3.0315933645 3.1120217861 3.1376440505 3.1537535929 
3.1686620467 3.1785602975 3.1913661882 3.2049849657 3.2151886651 3.2304650228 3.2436914843 3.2567538757 3.2669805966 
3.2735972257 3.2818819271 3.2876987364 3.290417784 3.291498397 3.0840462406 3.0616137125 3.0621731611 3.0618037228 
3.0589301655 3.0540488493 3.0466793394 3.0394388197 3.0324518815 3.0275769904 3.0297418981 3.2922984126 3.2851622119 
3.1269294403 3.2893007985 3.1205686372 3.2892801962 3.0625691078 3.2775792487 3.1086990573 3.1052167262 3.290681505 
3.100033787 3.0628871787 3.062897265 3.1151665489 3.290981878 3.2940137012 3.0655177945 3.0619671931 3.0618401172 
3.0983592599 3.0246024733 3.0309651565 3.0029088935 3.0112536282 2.9906718561 3.0042075803 3.017534356 3.0497637083 
3.0738077159 3.0384418149 3.1024558388 3.0598827067 3.0782624342 3.0943416203 3.1056824784 3.118403191 3.1297569848 
3.1440903866 3.1522436176 3.1606672944 3.1608055382 3.156267094 3.1500818771 3.142697675 3.1359567272 3.1298576546 
3.1243725919 3.1186662098 3.1130682426 3.0960385369 3.0921234188 3.0869274474 3.0790648671 3.0685360683 3.0581306039 
3.049463422 3.0417403293 3.0308128286 3.1127486922 3.1385007695 3.1548633028 3.1696786062 3.1796864393 3.1928436104 
3.2064425205 3.2166246741 3.2316796219 3.2454374327 3.258871936 3.2690778233 3.2760124824 3.2847577249 3.2913112306 
3.2939529801 3.2943853264 3.0581894285 3.0670895469 3.067779238 3.0675981746 3.0642750746 3.0594885215 3.05145397 
3.0439931833 3.0369225311 3.0318867536 3.033274419 3.2951145903 3.2882778434 3.127779591 3.2929436151 3.1211783669 
3.2772248782 3.0614086471 3.2800990214 3.10942181 3.1057179528 3.2942505164 3.100221821 3.0689716793 3.0682462214 
3.1155386612 3.2942683991 3.2989237056 3.0561183807 3.0658943807 3.0670094981 3.0983110882 3.0262319708 3.0286292836 
3.0008750724 3.0080612398 2.9888229734 3.0040902348 3.0178829124 3.0516033032 3.0746972731 3.0366565926 3.1024858657 
3.0591714949 3.0769883967 3.0936992545 3.1043763754 3.1176045413 3.1278031508 3.1448445438 3.1536346827 3.1626953657 
3.1650585304 3.1594495648 3.1531626051 3.1443377838 3.1371906662 3.1305038685 3.1241744518 3.1181131355 3.1132969085 
3.0964814362 3.0922228315 3.0870581865 3.0791218456 3.0685443161 3.0578005 3.0491604054 3.0410695063 3.0293960164 
3.1137939081 3.1389411658 3.1565297112 3.1721850372 3.1820993893 3.1944601347 3.2081504109 3.2188047632 3.2347625024 
3.2489389856 3.2621394345 3.2752416574 3.2799270349 3.2882570262 3.2927106741 3.2937549107 3.2935991106 3.0711484907 
3.0734547844 3.0723814203 3.0729799719 3.0698976069 3.0650506951 3.0566573326 3.049363235 3.042195895 3.0366222759 
3.0378959821 3.2961800985 3.291353791 3.1279248207 3.2939760976 3.1212094729 3.0891899256 3.0732046704 3.2837442908 
3.1091765032 3.1056502258 3.2940654747 3.100215933 3.0738600306 3.0738855529 3.1157276197 3.2937259932 3.2513778951 
3.0696141339 3.0732799738 3.0727240992 3.0987460617 3.029062716 3.0303266042 3.0036075799 3.0086196064 2.9909963248 
3.0084610367 3.0215804847 3.0597644161 3.0788622191 3.0399174819 3.1015883833 3.0566140694 3.0772292428 3.0939799093 
3.1060979854 3.1198424593 3.1306503905 3.1500426151 3.1675978245 3.1701090178 3.1697876662 3.1626007794 3.1536607701 
3.1433376255 3.1361016519 3.129029254 3.1230174402 3.1164268976 3.1111885988 3.0950940146 3.0925111598 3.0874999285 
3.0781467767 3.0688465708 3.057367325 3.0485064508 3.0394746743 3.028463144 3.1141006939 3.140662769 3.162439671 
3.1769569455 3.1859865967 3.2043891283 3.2143271093 3.2240133004 3.2406828811 3.2543095529 3.2702333814 3.2779098113 