# vtk DataFile Version 4.2
vtk output
ASCII
DATASET POLYDATA
POINTS 6661 float
2618.77 -2470.1 5800 2638.9 -2473.41 5800 2642.44 -2470.1 5800 
2582.83 -2457.1 5800 2609.9 -2467.95 5800 2655.86 -2457.1 5800 
2550.4 -2444.1 5800 2551.9 -2444.7 5800 2580.9 -2456.33 5800 
2667.9 -2446.25 5800 2670.21 -2444.1 5800 2517.97 -2431.1 5800 
2522.9 -2433.08 5800 2684.09 -2431.09 5800 2485.53 -2418.1 5800 
2493.9 -2421.45 5800 2696.91 -2419.15 5800 2698.12 -2418.09 5800 
2454.79 -2405.1 5800 2464.9 -2409.83 5800 2713.98 -2405.09 5800 
2429.84 -2392.1 5800 2435.9 -2397.41 5800 2725.91 -2395.31 5800 
2729.84 -2392.09 5800 2413.73 -2379.1 5800 2745.7 -2379.09 5800 
2396.47 -2366.1 5800 2406.9 -2374.65 5800 2754.91 -2371.54 5800 
2761.56 -2366.09 5800 2380.21 -2353.1 5800 2777.42 -2353.09 5800 
2359.63 -2340.1 5800 2377.9 -2351.38 5800 2783.92 -2347.76 5800 
2793.28 -2340.08 5800 2341.48 -2327.1 5800 2348.9 -2332.65 5800 
2809.14 -2327.08 5800 2325.28 -2314.1 5800 2812.92 -2323.99 5800 
2825 -2314.08 5800 2309.08 -2301.1 5800 2319.9 -2309.78 5800 
2840.86 -2301.08 5800 2292.88 -2288.1 5800 2841.92 -2300.21 5800 
2856.72 -2288.08 5800 2276.67 -2275.1 5800 2290.9 -2286.51 5800 
2870.92 -2276.44 5800 2872.59 -2275.08 5800 2260.47 -2262.1 5800 
2261.9 -2263.25 5800 2888.45 -2262.07 5800 2244.27 -2249.1 5800 
2899.93 -2252.66 5800 2904.31 -2249.07 5800 2228.07 -2236.1 5800 
2232.9 -2239.98 5800 2920.17 -2236.07 5800 2211.86 -2223.09 5800 
2928.93 -2228.89 5800 2936.03 -2223.07 5800 2201.13 -2210.09 5800 
2203.91 -2216.71 5800 2951.89 -2210.07 5800 2198.08 -2197.09 5800 
2957.93 -2205.11 5800 2966.95 -2197.07 5800 2198.89 -2184.09 5800 
2982.04 -2184.07 5800 2199.71 -2171.09 5800 2986.94 -2179.97 5800 
2996.45 -2171.06 5800 2200.53 -2158.09 5800 3010.35 -2158.06 5800 
2201.34 -2145.09 5800 3015.94 -2152.83 5800 3022.53 -2145.06 5800 
2202.16 -2132.09 5800 3029.08 -2132.06 5800 2202.98 -2119.09 5800 
3031.5 -2119.06 5800 2203.8 -2106.09 5800 3032.26 -2106.06 5800 
2203.91 -2104.2 5800 2204.61 -2093.08 5800 3032.97 -2093.06 5800 
2205.43 -2080.08 5800 3033.52 -2080.06 5800 2206.25 -2067.08 5800 
3033.88 -2067.05 5800 2205.43 -2054.08 5800 3034.12 -2054.05 5800 
2203.22 -2041.08 5800 2203.92 -2045.2 5800 3034.36 -2041.05 5800 
2201 -2028.08 5800 3034.59 -2028.05 5800 2198.78 -2015.08 5800 
3034.83 -2015.05 5800 2196.56 -2002.08 5800 3035.07 -2002.05 5800 
2194.35 -1989.08 5800 3035.31 -1989.05 5800 2192.13 -1976.08 5800 
3035.54 -1976.05 5800 2189.91 -1963.08 5800 3035.78 -1963.05 5800 
2187.7 -1950.07 5800 3036.02 -1950.05 5800 2185.48 -1937.07 5800 
3036.25 -1937.04 5800 2183.26 -1924.07 5800 3036.49 -1924.04 5800 
2181.04 -1911.07 5800 3036.73 -1911.04 5800 2178.83 -1898.07 5800 
3036.97 -1898.04 5800 2176.61 -1885.07 5800 3037.2 -1885.04 5800 
2174.39 -1872.07 5800 2174.93 -1875.22 5800 3037.44 -1872.04 5800 
2172.18 -1859.07 5800 3037.68 -1859.04 5800 2169.96 -1846.07 5800 
3037.92 -1846.04 5800 2167.74 -1833.07 5800 3038.15 -1833.04 5800 
2165.53 -1820.07 5800 3038.39 -1820.04 5800 2163.31 -1807.06 5800 
3038.63 -1807.03 5800 2161.09 -1794.06 5800 3038.87 -1794.03 5800 
2158.87 -1781.06 5800 3039.1 -1781.03 5800 2156.66 -1768.06 5800 
3039.34 -1768.03 5800 2154.44 -1755.06 5800 3039.58 -1755.03 5800 
2152.22 -1742.06 5800 3041.77 -1742.03 5800 2150 -1729.06 5800 
3044.27 -1729.03 5800 2147.78 -1716.06 5800 3044.97 -1728.15 5800 
3056.61 -1716.03 5800 2145.55 -1703.06 5800 2145.94 -1705.33 5800 
3065.09 -1703.03 5800 2143.33 -1690.06 5800 3073.98 -1691.93 5800 
3075.55 -1690.02 5800 2141.1 -1677.06 5800 3085.92 -1677.02 5800 
2138.88 -1664.05 5800 3096.33 -1664.02 5800 2136.65 -1651.05 5800 
3102.98 -1655.72 5800 3106.74 -1651.02 5800 2134.43 -1638.05 5800 
3117.16 -1638.02 5800 2132.2 -1625.05 5800 3127.57 -1625.02 5800 
2129.98 -1612.05 5800 3131.98 -1619.5 5800 3137.98 -1612.02 5800 
2127.75 -1599.05 5800 3148.39 -1599.01 5800 2125.53 -1586.05 5800 
3158.81 -1586.01 5800 2123.3 -1573.05 5800 3160.99 -1583.29 5800 
3169.22 -1573.01 5800 2120.84 -1560.05 5800 3179.63 -1560.01 5800 
2118.56 -1547.05 5800 3189.99 -1547.07 5800 3190.04 -1547.01 5800 
2116.79 -1534.05 5800 2116.95 -1535.96 5800 3197.5 -1534.01 5800 
2116.96 -1533.5 5800 2121.23 -1521.04 5800 3203.21 -1521.01 5800 
2123.22 -1508.04 5800 3208.92 -1508.01 5800 2122.82 -1495.04 5800 
3214.64 -1495 5800 2122.81 -1482.04 5800 3219 -1485.08 5800 
3219.87 -1482 5800 2123.37 -1469.04 5800 3223.11 -1469 5800 
2123.87 -1456.04 5800 3225.63 -1456 5800 2123.02 -1443.04 5800 
3225.98 -1443 5800 2122.14 -1430.04 5800 3226.33 -1430 5800 
2121.26 -1417.04 5800 3226.68 -1417 5800 2120.38 -1404.03 5800 
3227.03 -1404 5800 2119.5 -1391.03 5800 3227.37 -1391 5800 
2118.62 -1378.03 5800 3227.72 -1377.99 5800 2117.73 -1365.03 5800 
3228.07 -1364.99 5800 2116.85 -1352.03 5800 2116.97 -1353.73 5800 
3228.42 -1351.99 5800 2115.97 -1339.03 5800 3228.76 -1338.99 5800 
2115.1 -1326.03 5800 3229.11 -1325.99 5800 2114.23 -1313.03 5800 
3229.46 -1312.99 5800 2113.37 -1300.03 5800 3229.81 -1299.99 5800 
2112.52 -1287.03 5800 3230.17 -1286.99 5800 2111.67 -1274.03 5800 
3230.65 -1273.99 5800 2110.94 -1261.02 5800 3231.12 -1260.99 5800 
2110.2 -1248.02 5800 3231.59 -1247.98 5800 2109.46 -1235.02 5800 
3232.05 -1234.98 5800 2108.72 -1222.02 5800 3232.51 -1221.98 5800 
2107.98 -1209.02 5800 3232.95 -1208.98 5800 2107.25 -1196.02 5800 
3233.39 -1195.98 5800 2106.51 -1183.02 5800 3233.83 -1182.98 5800 
2105.77 -1170.02 5800 3234.31 -1169.98 5800 2105.03 -1157.02 5800 
3234.85 -1156.98 5800 2104.29 -1144.02 5800 3235.39 -1143.98 5800 
2103.56 -1131.01 5800 3235.92 -1130.98 5800 2102.82 -1118.01 5800 
3236.46 -1117.97 5800 2102.08 -1105.01 5800 3237 -1104.97 5800 
2101.34 -1092.01 5800 3237.76 -1091.97 5800 2100.12 -1079.01 5800 
3238.71 -1078.97 5800 2096.98 -1066.01 5800 3239.67 -1065.97 5800 
2093.83 -1053.01 5800 3240.7 -1052.97 5800 2090.68 -1040.01 5800 
3241.75 -1039.97 5800 2087.54 -1027.01 5800 2087.99 -1028.91 5800 
3242.81 -1026.97 5800 2085.09 -1014.01 5800 3243.9 -1013.97 5800 
2083.39 -1001.01 5800 3244.98 -1000.97 5800 2084.21 -988.004 5800 
3246.06 -987.964 5800 2086.43 -975.003 5800 3247.15 -974.963 5800 
2088 -965.768 5800 2088.62 -962.002 5800 3248.04 -964.277 5800 
3248.23 -961.962 5800 2090.8 -949.001 5800 3249.31 -948.961 5800 
2092.97 -936 5800 3250.4 -935.96 5800 2095.16 -922.999 5800 
3251.48 -922.959 5800 2097.36 -909.998 5800 3252.3 -909.958 5800 
2099.57 -896.997 5800 3252.62 -896.957 5800 2101.79 -883.995 5800 
3252.87 -883.956 5800 2104.01 -870.994 5800 3251.52 -870.955 5800 
2106.25 -857.993 5800 2556.46 -857.978 5800 2581.02 -866.409 5800 
2607.61 -857.976 5800 3249.03 -857.954 5800 2108.49 -844.992 5800 
2535.18 -844.978 5800 2552.02 -856.399 5800 2610.02 -857.21 5800 
2639.03 -847.579 5800 2645.62 -844.974 5800 3248.05 -852.81 5800 
3246.5 -844.953 5800 2110.75 -831.991 5800 2516.87 -831.977 5800 
2523.02 -836.728 5800 2668.03 -836.114 5800 2679.69 -831.972 5800 
3244.05 -831.952 5800 2112.98 -818.99 5800 2500.1 -818.977 5800 
2697.03 -825.209 5800 2726.03 -823.745 5800 2730.73 -818.969 5800 
3241.56 -818.951 5800 2115.2 -805.989 5800 2484.04 -805.976 5800 
2494.02 -814.247 5800 2741.87 -805.967 5800 3239.07 -805.95 5800 
2117.01 -795.335 5800 2117.39 -792.988 5800 2468.34 -792.976 5800 
2751.07 -792.966 5800 3236.23 -792.949 5800 2119.48 -779.987 5800 
2440.75 -779.976 5800 2465.02 -790.912 5800 2755.03 -789.206 5800 
2764.16 -779.965 5800 3233.04 -779.948 5800 2121.19 -766.986 5800 
2429.03 -766.975 5800 2436.02 -777.504 5800 2777.99 -766.963 5800 
3229.84 -766.948 5800 2121.65 -753.985 5800 2421.3 -753.974 5800 
2784.04 -761.273 5800 2791.81 -753.962 5800 3228.71 -753.947 5800 
2120.09 -740.984 5800 2413.57 -740.974 5800 2805.64 -740.96 5800 
3227.78 -740.946 5800 2118.39 -727.983 5800 2405.69 -727.973 5800 
2407.03 -729.963 5800 2813.04 -734.263 5800 2820.83 -727.959 5800 
3227 -727.945 5800 2116.65 -714.982 5800 2117.02 -717.628 5800 
2397.55 -714.972 5800 2837.05 -714.957 5800 3226.33 -714.944 5800 
2114.85 -701.981 5800 2390.32 -701.972 5800 2842.04 -710.953 5800 
2852.55 -701.956 5800 3225.86 -701.943 5800 2113.12 -688.98 5800 
2382.63 -688.971 5800 2863.62 -688.954 5800 3225.8 -688.942 5800 
2112.19 -675.979 5800 2374.02 -675.97 5800 2378.03 -681.272 5800 
2871.05 -677.023 5800 2871.49 -675.953 5800 3225.73 -675.941 5800 
2114.78 -662.978 5800 2365.09 -662.969 5800 2876.81 -662.952 5800 
3225.66 -662.94 5800 2117.02 -653.11 5800 2117.7 -649.977 5800 
2357.26 -649.969 5800 2882.18 -649.951 5800 3225.59 -649.939 5800 
2120.52 -636.976 5800 2350.34 -636.968 5800 2887.66 -636.949 5800 
3225.52 -636.938 5800 2123.27 -623.975 5800 2344.41 -623.967 5800 
2349.03 -634.596 5800 2893.24 -623.948 5800 3225.45 -623.937 5800 
2125.96 -610.974 5800 2337.05 -610.966 5800 2898.91 -610.947 5800 
3225.38 -610.936 5800 2128.68 -597.973 5800 2332.07 -597.966 5800 
2900.05 -608.348 5800 2904.68 -597.946 5800 3225.31 -597.935 5800 
2131.44 -584.971 5800 2325.58 -584.965 5800 2911.93 -584.945 5800 
3225.24 -584.934 5800 2134.24 -571.97 5800 2318.61 -571.964 5800 
2320.04 -574.541 5800 2920.32 -571.943 5800 3225.17 -571.933 5800 
2133.31 -558.969 5800 2311.93 -558.963 5800 2928.7 -558.942 5800 
3226.69 -558.932 5800 2132.9 -545.968 5800 2305.17 -545.963 5800 
2929.06 -558.381 5800 2935.93 -545.941 5800 3228.38 -545.931 5800 
2132.63 -532.967 5800 2298.63 -532.962 5800 2942.85 -532.94 5800 
3230.06 -532.93 5800 2130.89 -519.966 5800 2292.24 -519.961 5800 
2576.95 -519.951 5800 2581.05 -521.159 5800 2583.57 -519.951 5800 
2949.14 -519.938 5800 3231.75 -519.929 5800 2128.78 -506.966 5800 
2285.64 -506.96 5800 2291.04 -517.512 5800 2529.88 -506.952 5800 
2552.05 -513.587 5800 2608.76 -506.949 5800 2955.24 -506.937 5800 
3233.44 -506.928 5800 3625.09 -513.953 5800 3603.68 -506.915 5800 
3649.35 -506.913 5800 1653.02 -494.535 5800 1646.09 -493.981 5800 
1682.02 -496.855 5800 1711.02 -499.213 5800 1740.02 -501.715 5800 
1769.02 -503.822 5800 1798.02 -498.435 5800 1821.36 -493.975 5800 
[...]
POINT_DATA 6661
SCALARS Pressure double
LOOKUP_TABLE default
3.0932710339 3.0932710339 3.0932710339 3.0932710339 3.0932710339 3.0932710339 3.0932710339 3.0932710339 3.0932710339 
3.0932710339 3.0932710339 3.0932710339 3.0932710339 3.0932710339 3.0932710339 3.0932710339 3.0932710339 3.0932710339 
3.0932710339 3.0932710339 3.0932710339 3.0932710339 3.0932710339 3.0932710339 3.0932710339 3.0932710339 3.0932710339 
3.0932710339 3.0932710339 3.0932710339 3.0932710339 3.0932710339 3.0932710339 3.0932710339 3.0932710339 3.0932710339 
3.0932710339 3.0932710339 3.0932710339 3.0932710339 3.0932710339 3.0932710339 3.0932710339 3.0932710339 3.0932710339 
3.0932710339 3.0932710339 3.0932710339 3.0932710339 3.0932710339 3.0932710339 3.0932710339 3.0932710339 3.0932710339 
3.0932710339 3.0932710339 3.0932710339 3.0932710339 3.0932710339 3.0932710339 3.0932710339 3.0932710339 3.0932710339 
3.0932710339 3.0932710339 3.0932710339 3.0932710339 3.0932710339 3.0932710339 3.0932710339 3.0932710339 3.0932710339 
3.0932710339 3.0932710339 3.0932710339 3.0932710339 3.0932710339 3.0932710339 3.0932710339 3.0932710339 3.0932710339 
3.0932710339 3.0932710339 3.0932710339 3.0932710339 3.0932710339 3.0932710339 3.0932710339 3.0932710339 3.0932710339 
3.0932710339 3.0932710339 3.0932710339 3.0932710339 3.0932710339 3.0932710339 3.0932710339 3.0932710339 3.0932710339 
3.0932710339 3.0932710339 3.0932710339 3.0932710339 3.0932710339 3.0932710339 3.0932710339 3.0932710339 3.0932710339 
3.0932710339 3.0932710339 3.0932710339 3.0932710339 3.0932710339 3.0932710339 3.0932710339 3.0932710339 3.0932710339 
3.0932710339 3.0932710339 3.0932710339 3.0932710339 3.0932710339 3.0932710339 3.0932710339 3.0932710339 3.0932710339 
3.0932710339 3.0932710339 3.0932710339 3.0932710339 3.0932710339 3.0932710339 3.0932710339 3.0932710339 3.0932710339 
3.0932710339 3.0932710339 3.0932710339 3.0932710339 3.0932710339 3.0932710339 3.0932710339 3.0932710339 3.0932710339 
3.0932710339 3.0932710339 3.0932710339 3.0932710339 3.0932710339 3.0932710339 3.0932710339 3.0932710339 3.0932710339 
3.0932710339 3.0932710339 3.0932710339 3.0932710339 3.0932710339 3.0932710339 3.0932710339 3.0932710339 3.0932710339 
3.0932710339 3.0932710339 3.0932710339 3.0932710339 3.0932710339 3.0932710339 3.0932710339 3.0932710339 3.0932710339 
3.0932710339 3.0932710339 3.0932710339 3.0932710339 3.0932710339 3.0932710339 3.0932710339 3.0932710339 3.0932710339 
3.0932710339 3.0932710339 3.0932710339 3.0932710339 3.0932710339 3.0932710339 3.0932710339 3.0932710339 3.0932710339 
3.0932710339 3.0932710339 3.0932710339 3.0932710339 3.0932710339 3.0932710339 3.0932710339 3.0932710339 3.0932710339 
3.0932710339 3.0932710339 3.0932710339 3.0932710339 3.0932710339 3.0932710339 3.0932710339 3.0932710339 3.0932710339 
3.0932710339 3.0932710339 3.0932710339 3.0932710339 3.0932710339 3.0932710339 3.0932710339 3.0932710339 3.0932710339 
3.0932710339 3.0932710339 3.0932710339 3.0932710339 3.0932710339 3.0932710339 3.0932710339 3.0932710339 3.0932710339 
3.0932710339 3.0932710339 3.0932710339 3.0932710339 3.0932710339 3.0932710339 3.0932710339 3.0932710339 3.0932710339 
3.0932710339 3.0932710339 3.0932710339 3.0932710339 3.0932710339 3.0932710339 3.0932710339 3.0932710339 3.0932710339 
3.0932710339 3.0932710339 3.0932710339 3.0932710339 3.0932710339 3.0932710339 3.0932710339 3.0932710339 3.0932710339 
3.0932710339 3.0932710339 3.0932710339 3.0932710339 3.0932710339 3.0932710339 3.0932710339 3.0932710339 3.0932710339 
3.0932710339 3.0932710339 3.0932710339 3.0932710339 3.0932710339 3.0932710339 3.0932710339 3.0932710339 3.0932710339 
3.0932710339 3.0932710339 3.0932710339 3.0932710339 3.0932710339 3.0932710339 3.0932710339 3.0932710339 3.0932710339 
3.0932710339 3.0932710339 3.0932710339 3.0932710339 3.0932710339 3.0932710339 3.0932710339 3.0932710339 3.0932710339 
3.0932710339 3.0932710339 3.0932710339 3.0932710339 3.0932710339 3.0932710339 3.0932710339 3.1078652246 3.1078652246 
3.1078652246 3.0932710339 3.0932710339 3.1078652246 3.1078652246 3.1078652246 3.1078652246 3.1078652246 3.0932710339 
3.0932710339 3.0932710339 3.1078652246 3.1078652246 3.1078652246 3.1078652246 3.0932710339 3.0932710339 3.1078652246 
3.1078652246 3.1078652246 3.1078652246 3.0932710339 3.0932710339 3.1078652246 3.1078652246 3.1078652246 3.0932710339 
3.0932710339 3.0932710339 3.1078652246 3.1078652246 3.0932710339 3.0932710339 3.1078652246 3.1078652246 3.1078652246 
3.1078652246 3.0932710339 3.0932710339 3.1078652246 3.1078652246 3.1078652246 3.0932710339 3.0932710339 3.1078652246 
3.1078652246 3.1078652246 3.0932710339 3.0932710339 3.1078652246 3.1078652246 3.0932710339 3.0932710339 3.1078652246 
3.1078652246 3.1078652246 3.1078652246 3.0932710339 3.0932710339 3.0932710339 3.1078652246 3.1078652246 3.0932710339 
3.0932710339 3.1078652246 3.1078652246 3.1078652246 3.0932710339 3.0932710339 3.1078652246 3.1078652246 3.0932710339 
3.0932710339 3.1078652246 3.1078652246 3.1078652246 3.1078652246 3.0932710339 3.0932710339 3.1078652246 3.1078652246 
3.0932710339 3.0932710339 3.0932710339 3.1078652246 3.1078652246 3.0932710339 3.0932710339 3.1078652246 3.1078652246 
3.0932710339 3.0932710339 3.1078652246 3.1078652246 3.1078652246 3.0932710339 3.0932710339 3.1078652246 3.1078652246 
3.0932710339 3.0932710339 3.1078652246 3.1078652246 3.1078652246 3.0932710339 3.0932710339 3.1078652246 3.1078652246 
3.0932710339 3.0932710339 3.1078652246 3.1078652246 3.1078652246 3.0932710339 3.0932710339 3.1078652246 3.1078652246 
3.0932710339 3.0932710339 3.1078652246 3.1078652246 3.1078652246 3.0932710339 3.0932710339 3.1078652246 3.1078652246 
3.0932710339 3.0932710339 3.1078652246 3.1224594153 3.1224594153 3.1224594153 3.1078652246 3.0932710339 3.0932710339 
3.1078652246 3.1078652246 3.1224594153 3.1224594153 3.1224594153 3.1078652246 3.0932710339 3.0786768432 3.0786768432 
3.0786768432 3.0786768432 3.0786768432 3.0786768432 3.0786768432 3.0786768432 3.0786768432 3.0786768432 3.0786768432 
3.0932710339 3.1078652246 3.1224594153 3.1224594153 3.1224594153 3.1224594153 3.1224594153 3.1078652246 3.1078652246 
3.0932710339 3.0786768432 3.0786768432 3.0786768432 3.0786768432 3.0786768432 3.0786768432 3.0786768432 3.0786768432 
3.0786768432 3.0786768432 3.0932710339 3.1078652246 3.1224594153 3.1224594153 3.1224594153 3.1224594153 3.1078652246 
3.0932710339 3.0786768432 3.0786768432 3.0786768432 3.0786768432 3.0786768432 3.0786768432 3.0932710339 3.1078652246 
3.1224594153 3.1224594153 3.1224594153 3.1078652246 3.0932710339 3.0786768432 3.0786768432 3.0786768432 3.0786768432 
3.0786768432 3.0786768432 3.0786768432 3.0932710339 3.1078652246 3.1224594153 3.1224594153 3.1224594153 3.1224594153 
3.1078652246 3.0932710339 3.0786768432 3.0786768432 3.0786768432 3.0786768432 3.0932710339 3.1078652246 3.1224594153 
3.1224594153 3.1078652246 3.0932710339 3.0786768432 3.0786768432 3.0786768432 3.0786768432 3.0786768432 3.0786768432 
3.0786768432 3.0786768432 3.0932710339 3.1078652246 3.1078652246 3.1224594153 3.1224594153 3.1224594153 3.1224594153 
3.1078652246 3.1078652246 3.0932710339 3.0786768432 3.0786768432 3.0786768432 3.0786768432 3.0932710339 3.1078652246 
3.1224594153 3.1224594153 3.1078652246 3.0932710339 3.0786768432 3.0786768432 3.0786768432 3.0786768432 3.0786768432 
3.0786768432 3.0932710339 3.1078652246 3.1224594153 3.1224594153 3.1224594153 3.1078652246 3.0932710339 3.0786768432 
3.0786768432 3.0786768432 3.0786768432 3.0932710339 3.1078652246 3.1224594153 3.1224594153 3.1224594153 3.1078652246 
3.0932710339 3.0932710339 3.0786768432 3.0786768432 3.0786768432 3.0786768432 3.0786768432 3.0786768432 3.0786768432 
3.0786768432 3.0932710339 3.0932710339 3.1078652246 3.1224594153 3.1224594153 3.1078652246 3.0932710339 3.0786768432 
3.0786768432 3.0786768432 3.0786768432 3.0786768432 3.0932710339 3.1078652246 3.1224594153 3.1224594153 3.1224594153 
3.1078652246 3.1078652246 3.0932710339 3.0786768432 3.0786768432 3.0786768432 3.0786768432 3.0786768432 3.0932710339 
3.1078652246 3.1224594153 3.1224594153 3.1224594153 3.1078652246 3.0932710339 3.0786768432 3.0786768432 3.0786768432 
3.0786768432 3.0786768432 3.0932710339 3.1078652246 3.1224594153 3.1224594153 3.1078652246 3.0932710339 3.0786768432 
3.0786768432 3.0786768432 3.0786768432 3.0786768432 3.0786768432 3.0932710339 3.1078652246 3.1224594153 3.1224594153 
3.1078652246 3.0932710339 3.0786768432 3.0786768432 3.0786768432 3.0786768432 3.0786768432 3.0932710339 3.1078652246 
3.1224594153 3.137053606 3.137053606 3.137053606 3.137053606 3.137053606 3.1224594153 3.1224594153 3.1078652246 
3.0932710339 3.0786768432 3.0786768432 3.0786768432 3.0786768432 3.0786768432 3.0932710339 3.1078652246 3.1224594153 
3.1224594153 3.137053606 3.137053606 3.137053606 3.137053606 3.1224594153 3.1078652246 3.0932710339 3.0786768432 
3.0786768432 3.0786768432 3.0786768432 3.0786768432 3.0932710339 3.1078652246 3.1078652246 3.1224594153 3.137053606 
3.137053606 3.137053606 3.137053606 3.1224594153 3.1078652246 3.1078652246 3.0932710339 3.0786768432 3.0786768432 
3.0786768432 3.0786768432 3.0786768432 3.0932710339 3.1078652246 3.1224594153 3.137053606 3.137053606 3.1224594153 
3.1078652246 3.0932710339 3.0786768432 3.0786768432 3.0786768432 3.0786768432 3.0932710339 3.1078652246 3.1224594153 
3.137053606 3.137053606 3.137053606 3.137053606 3.1224594153 3.1224594153 3.1078652246 3.0932710339 3.0786768432 
3.0786768432 3.0786768432 3.0786768432 3.0786768432 3.0932710339 3.1078652246 3.1224594153 3.1224594153 3.137053606 
3.137053606 3.1224594153 3.1078652246 3.0932710339 3.0786768432 3.0786768432 3.0786768432 3.0786768432 3.0786768432 
3.0932710339 3.1078652246 3.1224594153 3.137053606 3.137053606 3.137053606 3.137053606 3.1224594153 3.1078652246 
3.0932710339 3.0786768432 3.0786768432 3.0786768432 3.0786768432 3.0786768432 3.0786768432 3.0932710339 3.1078652246 
3.1224594153 3.137053606 3.137053606 3.1224594153 3.1078652246 3.0932710339 3.0786768432 3.0786768432 3.0786768432 
3.0786768432 3.0786768432 3.0932710339 3.1078652246 3.1224594153 3.137053606 3.137053606 3.137053606 3.1224594153 
3.1078652246 3.0932710339 3.0786768432 3.0786768432 3.0786768432 3.0640826525 3.0640826525 3.0640826525 3.0640826525 
3.0640826525 3.0640826525 3.0640826525 3.0786768432 3.0932710339 3.1078652246 3.1224594153 3.1224594153 3.137053606 
3.137053606 3.1224594153 3.1078652246 3.0932710339 3.0786768432 3.0786768432 3.0786768432 3.0640826525 3.0640826525 
3.0640826525 3.0640826525 3.0786768432 3.0932710339 3.1078652246 3.1224594153 3.137053606 3.137053606 3.1224594153 
3.1078652246 3.0932710339 3.0786768432 3.0786768432 3.0786768432 3.0786768432 3.0640826525 3.0640826525 3.0640826525 
3.0786768432 3.0932710339 3.1078652246 3.1078652246 3.1224594153 3.137053606 3.137053606 3.1516477967 3.1516477967 
3.1516477967 3.1516477967 3.1516477967 3.1516477967 3.137053606 3.137053606 3.1224594153 3.1224594153 3.1078652246 
3.0932710339 3.0786768432 3.0786768432 3.0786768432 3.0640826525 3.0640826525 3.0640826525 3.0786768432 3.0932710339 
3.1078652246 3.1224594153 3.137053606 3.1516477967 3.1516477967 3.137053606 3.1224594153 3.1078652246 3.0932710339 
3.0786768432 3.0786768432 3.0786768432 3.0786768432 3.0640826525 3.0640826525 3.0640826525 3.0786768432 3.0932710339 
3.1078652246 3.1224594153 3.137053606 3.137053606 3.1516477967 3.1516477967 3.1516477967 3.1516477967 3.137053606 
3.1224594153 3.1078652246 3.0932710339 3.0786768432 3.0786768432 3.0786768432 3.0786768432 3.0640826525 3.0640826525 
3.0786768432 3.0786768432 3.0932710339 3.1078652246 3.1224594153 3.1224594153 3.137053606 3.1516477967 3.1516477967 
3.1516477967 3.137053606 3.1224594153 3.1078652246 3.0932710339 3.0786768432 3.0786768432 3.0786768432 3.0786768432 
3.0786768432 3.0786768432 3.0786768432 3.0786768432 3.0786768432 3.0640826525 3.0640826525 3.0786768432 3.0932710339 
3.1078652246 3.1224594153 3.137053606 3.1516477967 3.1516477967 3.1516477967 3.1516477967 3.137053606 3.1224594153 
3.1078652246 3.0932710339 3.0932710339 3.0786768432 3.0786768432 3.0786768432 3.0786768432 3.0640826525 3.0494884618 
3.0494884618 3.0494884618 3.0494884618 3.0640826525 3.0786768432 3.0932710339 3.1078652246 3.1224594153 3.137053606 
3.137053606 3.1516477967 3.1516477967 3.137053606 3.1224594153 3.1078652246 3.0932710339 3.0786768432 3.0786768432 
3.0786768432 3.0786768432 3.0786768432 3.0640826525 3.0640826525 3.0494884618 3.0494884618 3.0494884618 3.0494884618 
3.0640826525 3.0640826525 3.0786768432 3.0932710339 3.1078652246 3.1224594153 3.137053606 3.1516477967 3.1516477967 
3.1516477967 3.137053606 3.1224594153 3.1078652246 3.0932710339 3.0786768432 3.0640826525 3.0640826525 3.0640826525 
3.0786768432 3.0786768432 3.0640826525 3.0494884618 3.0494884618 3.0494884618 3.0640826525 3.0786768432 3.0932710339 
3.1078652246 3.1224594153 3.1224594153 3.137053606 3.1516477967 3.1516477967 3.137053606 3.1224594153 3.1224594153 
3.1078652246 3.0932710339 3.0786768432 3.0786768432 3.0640826525 3.0640826525 3.0640826525 3.0640826525 3.0786768432 
3.0786768432 3.0786768432 3.0640826525 3.0494884618 3.0494884618 3.0494884618 3.0640826525 3.0786768432 3.0932710339 
3.1078652246 3.1078652246 3.1224594153 3.137053606 3.1516477967 3.1516477967 3.137053606 3.1224594153 3.1078652246 
3.0932710339 3.0786768432 3.0640826525 3.0640826525 3.0640826525 3.0640826525 3.0786768432 3.0786768432 3.0640826525 
3.0494884618 3.0348942711 3.0348942711 3.0348942711 3.0494884618 3.0640826525 3.0786768432 3.0932710339 3.0932710339 
3.1078652246 3.1224594153 3.137053606 3.137053606 3.1516477967 3.1516477967 3.1516477967 3.137053606 3.1224594153 
3.1078652246 3.0932710339 3.0786768432 3.0640826525 3.0640826525 3.0640826525 3.0786768432 3.0786768432 3.0786768432 
3.0786768432 3.0640826525 3.0494884618 3.0348942711 3.0348942711 3.0348942711 3.0348942711 3.0494884618 3.0494884618 
3.0640826525 3.0786768432 3.0932710339 3.1078652246 3.1224594153 3.137053606 2.9473291268 2.9473291268 2.9619233175 
2.9619233175 2.9765175082 2.9765175082 2.991111699 2.991111699 3.0057058897 3.0057058897 3.0203000804 3.0203000804 
3.0348942711 3.0348942711 3.0494884618 3.0494884618 3.0640826525 3.0640826525 3.0786768432 3.0786768432 3.0932710339 
3.0932710339 3.1078652246 3.1078652246 3.1224594153 3.1224594153 3.137053606 3.137053606 3.1516477967 2.9473291268 
2.9619233175 2.9765175082 2.991111699 3.0057058897 3.0203000804 3.0348942711 3.0494884618 3.0640826525 3.0786768432 
3.0932710339 3.1078652246 3.1224594153 3.137053606 3.1516477967 2.9473291268 2.9619233175 2.9765175082 2.991111699 
3.0057058897 3.0203000804 3.0348942711 3.0494884618 3.0640826525 3.0786768432 3.0932710339 3.1078652246 3.1224594153 
3.137053606 3.1516477967 2.9473291268 2.9619233175 2.9765175082 2.991111699 3.0057058897 3.0203000804 3.0348942711 
3.0494884618 3.0640826525 3.0786768432 3.0932710339 3.1078652246 3.1224594153 3.137053606 3.1516477967 2.9473291268 
2.9619233175 2.9765175082 2.991111699 3.0057058897 3.0203000804 3.0348942711 3.0494884618 3.0640826525 3.0786768432 
3.0932710339 3.1078652246 3.1224594153 3.137053606 3.1516477967 2.9473291268 2.9619233175 2.9765175082 2.991111699 
3.0057058897 3.0203000804 3.0348942711 3.0494884618 3.0640826525 3.0786768432 3.0932710339 3.1078652246 3.1224594153 
3.137053606 3.1516477967 2.9473291268 2.9619233175 2.9765175082 2.991111699 3.0057058897 3.0203000804 3.0348942711 
3.0494884618 3.0640826525 3.0786768432 3.0932710339 3.1078652246 3.1224594153 3.137053606 3.1516477967 2.9473291268 
2.9619233175 2.9765175082 2.991111699 3.0057058897 3.0203000804 3.0348942711 3.0494884618 3.0640826525 3.0786768432 
3.0932710339 3.1078652246 3.1224594153 3.137053606 3.1516477967 2.9473291268 2.9619233175 2.9765175082 2.991111699 
3.0057058897 3.0203000804 3.0348942711 3.0494884618 3.0640826525 3.0786768432 3.0932710339 3.1078652246 3.1224594153 
3.137053606 3.1516477967 2.9473291268 2.9619233175 2.9765175082 2.991111699 3.0057058897 3.0203000804 3.0348942711 
3.0494884618 3.0640826525 3.0786768432 3.0932710339 3.1078652246 3.1224594153 3.137053606 3.1516477967 2.9473291268 
2.9619233175 2.9765175082 2.991111699 3.0057058897 3.0203000804 3.0348942711 3.0494884618 3.0640826525 3.0786768432 
3.0932710339 3.1078652246 3.1224594153 3.137053606 3.1516477967 2.9473291268 2.9619233175 2.9765175082 2.991111699 
3.0057058897 3.0203000804 3.0348942711 3.0494884618 3.0640826525 3.0786768432 3.0932710339 3.1078652246 3.1224594153 
3.137053606 2.9473291268 2.9619233175 2.9765175082 2.991111699 3.0057058897 3.0203000804 3.0348942711 3.0494884618 
3.0640826525 3.0786768432 3.0932710339 3.1078652246 3.1224594153 3.137053606 2.9473291268 2.9619233175 2.9765175082 
2.991111699 3.0057058897 3.0203000804 3.0348942711 3.0494884618 3.0640826525 3.0786768432 3.0932710339 3.1078652246 
3.1224594153 3.137053606 2.9473291268 2.9619233175 2.9765175082 2.991111699 3.0057058897 3.0203000804 3.0348942711 
3.0494884618 3.0640826525 3.0786768432 3.0932710339 3.1078652246 3.1224594153 3.137053606 2.9473291268 2.9619233175 
2.9765175082 2.991111699 3.0057058897 3.0203000804 3.0348942711 3.0494884618 3.0640826525 3.0786768432 3.0932710339 
3.1078652246 3.1224594153 2.9473291268 2.9619233175 2.9765175082 2.991111699 3.0057058897 3.0203000804 3.0348942711 
3.0494884618 3.0640826525 3.0786768432 3.0932710339 3.1078652246 3.1224594153 2.9473291268 2.9619233175 2.9765175082 
2.991111699 3.0057058897 3.0203000804 3.0348942711 3.0494884618 3.0640826525 3.0786768432 3.0932710339 3.1078652246 
3.1224594153 2.9473291268 2.9619233175 2.9765175082 2.991111699 3.0057058897 3.0203000804 3.0348942711 3.0494884618 
3.0640826525 3.0786768432 3.0932710339 3.1078652246 3.1224594153 3.1224594153 3.1078652246 3.0932710339 3.0786768432 
3.0640826525 3.0640826525 3.0640826525 3.0786768432 3.0786768432 3.0786768432 3.0640826525 3.0494884618 3.0348942711 
3.0348942711 3.0494884618 3.0640826525 3.0786768432 3.0932710339 3.1078652246 2.9473291268 2.9473291268 2.9619233175 
2.9619233175 2.9765175082 2.9765175082 2.991111699 2.991111699 3.0057058897 3.0057058897 3.0203000804 3.0203000804 
3.0348942711 3.0348942711 3.0494884618 3.0494884618 3.0640826525 3.0640826525 3.0786768432 3.0786768432 3.0932710339 
3.0932710339 3.1078652246 3.1078652246 3.1224594153 2.9473291268 2.9619233175 2.9765175082 2.991111699 3.0057058897 
3.0203000804 3.0348942711 3.0494884618 3.0640826525 3.0786768432 3.0932710339 3.1078652246 3.1224594153 3.137053606 
2.9473291268 2.9619233175 2.9765175082 2.991111699 3.0057058897 3.0203000804 3.0348942711 3.0494884618 3.0640826525 
3.0786768432 3.0932710339 3.1078652246 3.1224594153 3.137053606 2.9473291268 2.9619233175 2.9765175082 2.991111699 
3.0057058897 3.0203000804 3.0348942711 3.0494884618 3.0640826525 3.0786768432 3.0932710339 3.1078652246 3.1224594153 
2.9473291268 2.9619233175 2.9765175082 2.991111699 3.0057058897 3.0203000804 3.0348942711 3.0494884618 3.0640826525 
3.0786768432 3.0932710339 3.1078652246 3.1224594153 2.9473291268 2.9619233175 2.9765175082 2.991111699 3.0057058897 
3.0203000804 3.0348942711 3.0494884618 3.0640826525 3.0786768432 3.0932710339 3.1078652246 2.9473291268 2.9619233175 
2.9765175082 2.991111699 3.0057058897 3.0203000804 3.0348942711 3.0494884618 3.0640826525 3.0786768432 3.0932710339 
3.1078652246 2.9473291268 2.9619233175 2.9765175082 2.991111699 3.0057058897 3.0203000804 3.0348942711 3.0494884618 
3.0640826525 3.0786768432 3.0932710339 3.1078652246 2.9473291268 2.9619233175 2.9765175082 2.991111699 3.0057058897 
3.0203000804 3.0348942711 3.0494884618 3.0640826525 3.0786768432 3.0932710339 3.1078652246 2.9473291268 2.9619233175 
2.9765175082 2.991111699 3.0057058897 3.0203000804 3.0348942711 3.0494884618 3.0640826525 3.0786768432 3.0932710339 
3.1078652246 3.1078652246 3.1078652246 3.0932710339 3.0786768432 3.0640826525 3.0640826525 3.0640826525 3.0786768432 
3.0786768432 3.0640826525 3.0494884618 3.0348942711 3.0348942711 3.0203000804 3.0203000804 3.0203000804 3.0203000804 