# vtk DataFile Version 4.2
vtk output
ASCII
DATASET POLYDATA
POINTS 7411 float
1621.51 -2907.13 0 1627.87 -2911.86 0 1654.56 -2907.13 0 
1576.2 -2890.13 0 1590.87 -2895.63 0 1664.87 -2905.53 0 
1701.88 -2900.65 0 1738.88 -2895.76 0 1775.88 -2890.88 0 
1781.58 -2890.12 0 1530.89 -2873.13 0 1553.87 -2881.75 0 
1812.88 -2885.99 0 1849.88 -2881.1 0 1886.88 -2876.22 0 
1910.36 -2873.12 0 1485.57 -2856.13 0 1516.87 -2867.87 0 
1923.88 -2871.33 0 1960.88 -2866.45 0 1997.89 -2861.56 0 
2034.89 -2856.67 0 2039.14 -2856.11 0 1440.26 -2839.13 0 
1442.87 -2840.11 0 1479.87 -2853.99 0 2071.89 -2851.79 0 
2108.89 -2846.9 0 2145.89 -2842.02 0 2167.92 -2839.11 0 
1394.95 -2822.13 0 1405.87 -2826.23 0 2182.89 -2837.13 0 
2214.63 -2822.11 0 1349.64 -2805.13 0 1368.87 -2812.34 0 
2219.89 -2813.73 0 2221.45 -2805.1 0 1304.32 -2788.13 0 
1331.87 -2798.46 0 2224.52 -2788.1 0 1259.01 -2771.13 0 
1294.87 -2784.58 0 2227.59 -2771.1 0 1213.7 -2754.13 0 
1220.87 -2756.82 0 1257.87 -2770.7 0 2230.65 -2754.1 0 
1168.39 -2737.13 0 1183.87 -2742.94 0 2233.72 -2737.1 0 
1123.08 -2720.13 0 1146.87 -2729.06 0 2236.79 -2720.1 0 
1086.93 -2703.13 0 1109.87 -2715.18 0 2239.85 -2703.1 0 
1061.63 -2686.13 0 1072.87 -2694.32 0 2242.92 -2686.1 0 
1038.31 -2669.13 0 2245.99 -2669.1 0 1014.98 -2652.13 0 
1035.87 -2667.35 0 2249.06 -2652.1 0 991.656 -2635.13 0 
998.872 -2640.39 0 2252.12 -2635.09 0 968.331 -2618.13 0 
2255.19 -2618.09 0 956.511 -2601.13 0 961.872 -2613.42 0 
2256.91 -2608.57 0 2258.26 -2601.09 0 949.252 -2584.13 0 
2261.32 -2584.09 0 942.166 -2567.13 0 2264.39 -2567.09 0 
935.248 -2550.12 0 2267.46 -2550.09 0 928.492 -2533.12 0 
2270.53 -2533.09 0 922.039 -2516.12 0 924.877 -2523.86 0 
2273.59 -2516.09 0 915.803 -2499.12 0 2276.66 -2499.09 0 
909.567 -2482.12 0 2279.73 -2482.08 0 903.332 -2465.12 0 
2282.79 -2465.08 0 897.096 -2448.12 0 2285.86 -2448.08 0 
890.86 -2431.12 0 2288.93 -2431.08 0 884.624 -2414.12 0 
887.881 -2423 0 2292 -2414.08 0 878.389 -2397.12 0 
2293.92 -2403.41 0 2295.06 -2397.08 0 872.153 -2380.12 0 
2298.13 -2380.08 0 865.917 -2363.12 0 2301.2 -2363.08 0 
859.682 -2346.11 0 2304.26 -2346.08 0 853.446 -2329.11 0 
2307.33 -2329.07 0 847.211 -2312.11 0 850.886 -2322.14 0 
2310.4 -2312.07 0 840.975 -2295.11 0 2313.47 -2295.07 0 
834.739 -2278.11 0 2316.53 -2278.07 0 828.504 -2261.11 0 
2319.6 -2261.07 0 822.268 -2244.11 0 2325.2 -2244.07 0 
816.032 -2227.11 0 2330.93 -2236.19 0 2337.56 -2227.07 0 
809.796 -2210.11 0 813.891 -2221.27 0 2349.93 -2210.07 0 
803.561 -2193.11 0 2362.3 -2193.07 0 797.325 -2176.11 0 
2367.94 -2185.32 0 2374.67 -2176.06 0 791.089 -2159.11 0 
2387.04 -2159.06 0 784.854 -2142.1 0 2399.41 -2142.06 0 
781.662 -2125.1 0 2404.94 -2134.45 0 2411.77 -2125.06 0 
779.408 -2108.1 0 2424.14 -2108.06 0 777.22 -2091.1 0 
2436.51 -2091.06 0 775.032 -2074.1 0 776.898 -2088.6 0 
2441.94 -2083.59 0 2448.88 -2074.06 0 772.844 -2057.1 0 
2461.25 -2057.05 0 770.657 -2040.1 0 2473.61 -2040.05 0 
768.469 -2023.1 0 2478.68 -2023.05 0 766.281 -2006.1 0 
2477.3 -2006.05 0 764.093 -1989.1 0 2476.47 -1989.05 0 
761.906 -1972.1 0 2475.45 -1972.05 0 759.718 -1955.09 0 
2474.34 -1955.05 0 757.53 -1938.09 0 2473.22 -1938.05 0 
755.342 -1921.09 0 2472.11 -1921.05 0 753.154 -1904.09 0 
2470.99 -1904.05 0 750.967 -1887.09 0 2469.88 -1887.04 0 
748.779 -1870.09 0 2468.76 -1870.04 0 746.591 -1853.09 0 
2467.65 -1853.04 0 744.403 -1836.09 0 2466.53 -1836.04 0 
742.216 -1819.09 0 2465.42 -1819.04 0 740.026 -1802.09 0 
2464.31 -1802.04 0 737.84 -1785.09 0 739.914 -1801.2 0 
2463.19 -1785.04 0 735.652 -1768.08 0 2462.08 -1768.04 0 
731.17 -1751.08 0 2460.96 -1751.04 0 725.544 -1734.08 0 
2459.85 -1734.04 0 721.277 -1717.08 0 2458.73 -1717.03 0 
715.735 -1700.08 0 2457.62 -1700.03 0 709.312 -1683.08 0 
2456.5 -1683.03 0 701.461 -1666.08 0 702.921 -1669.82 0 
2455.39 -1666.03 0 695.916 -1649.08 0 2454.28 -1649.03 0 
692.493 -1632.08 0 2453.16 -1632.03 0 -481.109 -1627.48 0 
-504.441 -1615.11 0 -444.108 -1631.21 0 -407.106 -1619.49 0 
-393.241 -1615.11 0 688.881 -1615.08 0 2452.05 -1615.03 0 
-518.109 -1607.86 0 -536.491 -1598.11 0 -370.105 -1607.78 0 
-339.528 -1598.1 0 685.269 -1598.08 0 2451.42 -1598.03 0 
-555.108 -1588.23 0 -568.54 -1581.11 0 -333.103 -1596.07 0 
-296.101 -1584.36 0 -285.814 -1581.1 0 681.658 -1581.07 0 
2452.2 -1581.03 0 -592.108 -1568.61 0 -600.589 -1564.11 0 
-259.1 -1572.64 0 -232.101 -1564.1 0 678.046 -1564.07 0 
2453.26 -1564.03 0 -629.108 -1548.98 0 -632.639 -1547.11 0 
-222.098 -1560.93 0 -185.096 -1549.22 0 -178.562 -1547.1 0 
674.434 -1547.07 0 2454.32 -1547.02 0 -664.688 -1530.11 0 
-148.094 -1537.37 0 -126.222 -1530.09 0 670.822 -1530.07 0 
2455.38 -1530.02 0 -666.108 -1529.35 0 -696.738 -1513.11 0 
-111.093 -1525.2 0 -75.094 -1513.09 0 667.21 -1513.07 0 
2456.44 -1513.02 0 -703.108 -1509.73 0 -728.787 -1496.11 0 
-74.091 -1512.76 0 -56.9417 -1496.09 0 663.598 -1496.07 0 
665.929 -1507.04 0 2457.5 -1496.02 0 -740.108 -1490.1 0 
-752.878 -1479.11 0 -40.5083 -1479.09 0 659.987 -1479.07 0 
2458.56 -1479.02 0 -765.678 -1462.11 0 -37.0879 -1476.54 0 
-27.4358 -1462.09 0 656.375 -1462.07 0 2459.62 -1462.02 0 
-777.106 -1445.59 0 -777.438 -1445.11 0 -15.5949 -1445.09 0 
652.763 -1445.07 0 2460.68 -1445.02 0 -789.198 -1428.11 0 
-3.08069 -1428.08 0 649.151 -1428.07 0 2461.74 -1428.02 0 
-800.958 -1411.1 0 -0.0837605 -1424.01 0 9.43351 -1411.08 0 
645.539 -1411.07 0 1399.33 -1411.05 0 1405.95 -1411.39 0 
1442.96 -1412.3 0 1479.96 -1413.2 0 1516.96 -1414.11 0 
1524.79 -1411.04 0 2462.8 -1411.02 0 -812.718 -1394.1 0 
21.9477 -1394.08 0 641.927 -1394.06 0 1333.98 -1394.05 0 
1368.95 -1409.22 0 1553.96 -1394.42 0 1554.38 -1394.04 0 
2463.86 -1394.02 0 -814.104 -1392.1 0 -824.478 -1377.1 0 
34.462 -1377.08 0 638.315 -1377.06 0 1294.8 -1377.05 0 
1294.95 -1377.11 0 1331.95 -1393.17 0 1573.4 -1377.04 0 
2464.92 -1377.01 0 -836.238 -1360.1 0 36.9202 -1373.74 0 
46.9762 -1360.08 0 634.704 -1360.06 0 1255.63 -1360.05 0 
1257.95 -1361.05 0 1590.96 -1361.34 0 1592.42 -1360.04 0 
2465.98 -1360.01 0 -847.998 -1343.1 0 59.4904 -1343.08 0 
631.092 -1343.06 0 1218.89 -1343.05 0 1220.95 -1345 0 
1611.44 -1343.04 0 2467.04 -1343.01 0 -851.102 -1338.61 0 
-859.758 -1326.1 0 72.0046 -1326.08 0 627.48 -1326.06 0 
628.939 -1332.93 0 1198.79 -1326.05 0 1627.97 -1328.26 0 
1630.46 -1326.03 0 2468.1 -1326.01 0 -871.518 -1309.1 0 
73.9242 -1323.47 0 84.5188 -1309.07 0 621.898 -1309.06 0 
1177.08 -1309.05 0 1183.95 -1315.48 0 1649.48 -1309.03 0 
2469.16 -1309.01 0 -883.278 -1292.1 0 97.033 -1292.07 0 
612.295 -1292.06 0 1156.39 -1292.04 0 1664.97 -1295.18 0 
1668.49 -1292.03 0 2470.22 -1292.01 0 -888.1 -1285.13 0 
-895.037 -1275.1 0 109.547 -1275.07 0 602.692 -1275.06 0 
1131.8 -1275.04 0 1146.96 -1285.3 0 1687.51 -1275.03 0 
2468.72 -1275.01 0 -906.797 -1258.1 0 110.928 -1273.2 0 
122.061 -1258.07 0 593.089 -1258.06 0 1106.67 -1258.04 0 
1109.96 -1260.27 0 1701.97 -1263.51 0 1706.97 -1258.03 0 
2466.08 -1258.01 0 -918.557 -1241.1 0 134.576 -1241.07 0 
585.915 -1241.06 0 591.942 -1255.94 0 1081.54 -1241.04 0 
1723.9 -1241.03 0 2464.04 -1241.01 0 -925.097 -1231.64 0 
-930.317 -1224.1 0 147.09 -1224.07 0 581.991 -1224.06 0 
1056.4 -1224.04 0 1072.96 -1235.24 0 1737 -1224.03 0 
2460.71 -1224.01 0 -942.077 -1207.1 0 147.932 -1222.11 0 
151.613 -1207.07 0 578.067 -1207.06 0 1031.27 -1207.04 0 
1035.96 -1210.21 0 1738.98 -1221.14 0 1748.88 -1207.02 0 
2457.23 -1207 0 -953.837 -1190.1 0 153.56 -1190.07 0 
574.143 -1190.05 0 1006.14 -1190.04 0 1760.85 -1190.02 0 
2454.76 -1190 0 -962.095 -1178.16 0 -965.597 -1173.1 0 
155.508 -1173.06 0 570.219 -1173.05 0 988.477 -1173.04 0 
998.957 -1185.19 0 1772.41 -1173.02 0 2453.55 -1173 0 
-977.357 -1156.09 0 157.456 -1156.06 0 566.295 -1156.05 0 
973.739 -1156.04 0 1775.98 -1167.65 0 1784.03 -1156.02 0 
2453.23 -1156 0 -989.117 -1139.09 0 159.404 -1139.06 0 
562.371 -1139.05 0 959.684 -1139.04 0 961.959 -1142.52 0 
1795.81 -1139.02 0 2452.91 -1139 0 -999.093 -1124.66 0 
-1000.87 -1122.09 0 161.352 -1122.06 0 558.447 -1122.05 0 
949.049 -1122.04 0 1807.58 -1122.02 0 2452.64 -1122 0 
-1019.73 -1105.09 0 163.3 -1105.06 0 554.519 -1105.05 0 
554.95 -1106.9 0 939.314 -1105.04 0 1812.98 -1114.21 0 
1819.35 -1105.02 0 2452.43 -1105 0 -1029.82 -1088.09 0 
165.247 -1088.06 0 550.567 -1088.05 0 930.2 -1088.04 0 
1831.13 -1088.01 0 2452.23 -1088 0 -1033.75 -1071.09 0 
167.284 -1071.06 0 546.619 -1071.05 0 921.087 -1071.04 0 
924.962 -1078.27 0 1842.9 -1071.01 0 2452.02 -1071 0 
-1036.09 -1054.82 0 -1036.21 -1054.09 0 174.113 -1054.06 0 
542.676 -1054.05 0 907.671 -1054.04 0 1849.99 -1060.78 0 
1853.82 -1054.01 0 2451.82 -1054 0 -1038.89 -1037.09 0 
180.984 -1037.06 0 538.737 -1037.05 0 892.989 -1037.04 0 
1862.56 -1037.01 0 2451.61 -1036.99 0 -1041.34 -1020.09 0 
184.945 -1027.26 0 187.856 -1020.05 0 534.803 -1020.05 0 
878.307 -1020.04 0 887.963 -1031.22 0 1869.25 -1020.01 0 
2451.41 -1019.99 0 -1043.57 -1003.09 0 194.727 -1003.05 0 
530.874 -1003.04 0 863.625 -1003.04 0 1875.77 -1003.01 0 
2451.21 -1002.99 0 -1045.63 -986.086 0 201.599 -986.053 0 
526.949 -986.044 0 848.943 -986.035 0 850.965 -988.376 0 
1882.3 -986.007 0 2451.01 -985.992 0 -1047.6 -969.085 0 
208.47 -969.051 0 522.748 -969.043 0 834.261 -969.034 0 
1886.99 -973.774 0 1888.82 -969.006 0 2450.85 -968.991 0 
-1049.89 -952.084 0 215.342 -952.05 0 517.451 -952.042 0 
517.958 -953.765 0 819.58 -952.034 0 1896.11 -952.005 0 
2450.18 -951.99 0 -1052.17 -935.083 0 221.951 -935.698 0 
222.103 -935.049 0 511.86 -935.041 0 805.596 -935.033 0 
813.966 -945.534 0 1904.71 -935.004 0 2448.07 -934.989 0 
-1054.45 -918.082 0 223.814 -918.048 0 506.565 -918.04 0 
792.945 -918.033 0 1913.37 -918.002 0 2445.65 -917.988 0 
-1056.74 -901.082 0 223.322 -901.047 0 501.085 -901.039 0 
781.292 -901.032 0 1922.04 -901.001 0 2443.23 -900.987 0 
-1059.02 -884.081 0 222.829 -884.046 0 495.605 -884.039 0 
770.943 -884.031 0 776.968 -894.362 0 1924 -897.159 0 
1930.71 -884 0 2442.01 -892.444 0 2440.81 -883.986 0 
-1061.3 -867.08 0 222.337 -867.045 0 490.128 -867.038 0 
[...]
POINT_DATA 7411
SCALARS Pressure double
LOOKUP_TABLE default
3.0932710339 3.0932710339 3.0932710339 3.0932710339 3.0932710339 3.0932710339 3.0932710339 3.0932710339 3.0932710339 
3.0932710339 3.0932710339 3.0932710339 3.0932710339 3.0932710339 3.0932710339 3.0932710339 3.0932710339 3.0932710339 
3.0932710339 3.0932710339 3.0932710339 3.0932710339 3.0932710339 3.0932710339 3.0932710339 3.0932710339 3.0932710339 
3.0932710339 3.0932710339 3.0932710339 3.0932710339 3.0932710339 3.0932710339 3.0932710339 3.0932710339 3.0932710339 
3.0932710339 3.0932710339 3.0932710339 3.0932710339 3.0932710339 3.0932710339 3.0932710339 3.0932710339 3.0932710339 
3.0932710339 3.0932710339 3.0932710339 3.0932710339 3.0932710339 3.0932710339 3.0932710339 3.0932710339 3.0932710339 
3.0932710339 3.0932710339 3.0932710339 3.0932710339 3.0932710339 3.0932710339 3.0932710339 3.0932710339 3.0932710339 
3.0932710339 3.0932710339 3.0932710339 3.0932710339 3.0932710339 3.0932710339 3.0932710339 3.0932710339 3.0932710339 
3.0932710339 3.0932710339 3.0932710339 3.0932710339 3.0932710339 3.0932710339 3.0932710339 3.0932710339 3.0932710339 
3.0932710339 3.0932710339 3.0932710339 3.0932710339 3.0932710339 3.0932710339 3.0932710339 3.0932710339 3.0932710339 
3.0932710339 3.0932710339 3.0932710339 3.0932710339 3.0932710339 3.0932710339 3.0932710339 3.0932710339 3.0932710339 
3.0932710339 3.0932710339 3.0932710339 3.0932710339 3.0932710339 3.0932710339 3.0932710339 3.0932710339 3.0932710339 
3.0932710339 3.0932710339 3.0932710339 3.0932710339 3.0932710339 3.0932710339 3.0932710339 3.0932710339 3.0932710339 
3.0932710339 3.0932710339 3.0932710339 3.0932710339 3.0932710339 3.0932710339 3.0932710339 3.0932710339 3.0932710339 
3.0932710339 3.0932710339 3.0932710339 3.0932710339 3.0932710339 3.0932710339 3.0932710339 3.0932710339 3.0932710339 
3.0932710339 3.0932710339 3.0932710339 3.0932710339 3.0932710339 3.0932710339 3.0932710339 3.0932710339 3.0932710339 
3.0932710339 3.0932710339 3.0932710339 3.0932710339 3.0932710339 3.0932710339 3.0932710339 3.0932710339 3.0932710339 
3.0932710339 3.0932710339 3.0932710339 3.0932710339 3.0932710339 3.0932710339 3.0932710339 3.0932710339 3.0932710339 
3.0932710339 3.0932710339 3.0932710339 3.0932710339 3.0932710339 3.0932710339 3.0932710339 3.0932710339 3.0932710339 
3.0932710339 3.0932710339 3.0932710339 3.0932710339 3.0932710339 3.0932710339 3.0932710339 3.0932710339 3.0932710339 
3.0932710339 3.0932710339 3.0932710339 3.0932710339 3.0932710339 3.0932710339 3.0932710339 3.0932710339 3.0932710339 
3.0932710339 3.0932710339 3.0932710339 3.0932710339 3.0932710339 3.0932710339 3.0932710339 3.0932710339 3.0932710339 
3.0932710339 3.0932710339 3.0786768432 3.0786768432 3.0786768432 3.0786768432 3.0786768432 3.0932710339 3.0932710339 
3.0786768432 3.0786768432 3.0786768432 3.0786768432 3.0932710339 3.0932710339 3.0786768432 3.0786768432 3.0786768432 
3.0786768432 3.0786768432 3.0932710339 3.0932710339 3.0786768432 3.0786768432 3.0786768432 3.0786768432 3.0932710339 
3.0932710339 3.0786768432 3.0786768432 3.0786768432 3.0786768432 3.0786768432 3.0932710339 3.0932710339 3.0786768432 
3.0786768432 3.0786768432 3.0932710339 3.0932710339 3.0786768432 3.0786768432 3.0786768432 3.0786768432 3.0932710339 
3.0932710339 3.0786768432 3.0786768432 3.0786768432 3.0786768432 3.0932710339 3.0932710339 3.0932710339 3.0786768432 
3.0786768432 3.0786768432 3.0932710339 3.0932710339 3.0786768432 3.0786768432 3.0786768432 3.0932710339 3.0932710339 
3.0786768432 3.0786768432 3.0786768432 3.0932710339 3.0932710339 3.0786768432 3.0786768432 3.0932710339 3.0932710339 
3.0786768432 3.0786768432 3.0786768432 3.0932710339 3.1078652246 3.1078652246 3.1078652246 3.1078652246 3.1078652246 
3.1078652246 3.0932710339 3.0786768432 3.0786768432 3.0932710339 3.1078652246 3.1078652246 3.1078652246 3.1078652246 
3.0932710339 3.0786768432 3.0786768432 3.0786768432 3.0932710339 3.1078652246 3.1078652246 3.1078652246 3.1078652246 
3.0932710339 3.0786768432 3.0786768432 3.0786768432 3.0932710339 3.1078652246 3.1078652246 3.1078652246 3.1078652246 
3.0932710339 3.0786768432 3.0786768432 3.0932710339 3.1078652246 3.1078652246 3.1078652246 3.0932710339 3.0786768432 
3.0786768432 3.0786768432 3.0932710339 3.0932710339 3.1078652246 3.1078652246 3.1078652246 3.0932710339 3.0786768432 
3.0786768432 3.0786768432 3.0932710339 3.1078652246 3.1078652246 3.1078652246 3.0932710339 3.0786768432 3.0786768432 
3.0932710339 3.1078652246 3.1078652246 3.1078652246 3.0932710339 3.0786768432 3.0786768432 3.0786768432 3.0932710339 
3.1078652246 3.1078652246 3.1078652246 3.0932710339 3.0786768432 3.0786768432 3.0786768432 3.0932710339 3.1078652246 
3.1078652246 3.1078652246 3.1078652246 3.0932710339 3.0786768432 3.0786768432 3.0932710339 3.0932710339 3.1078652246 
3.1078652246 3.0932710339 3.0786768432 3.0786768432 3.0786768432 3.0932710339 3.1078652246 3.1078652246 3.1078652246 
3.0932710339 3.0786768432 3.0786768432 3.0786768432 3.0932710339 3.1078652246 3.1078652246 3.1078652246 3.1078652246 
3.0932710339 3.0786768432 3.0786768432 3.0932710339 3.1078652246 3.1078652246 3.0932710339 3.0786768432 3.0786768432 
3.0786768432 3.0932710339 3.1078652246 3.1078652246 3.1078652246 3.0932710339 3.0786768432 3.0786768432 3.0932710339 
3.1078652246 3.1078652246 3.1078652246 3.0932710339 3.0786768432 3.0786768432 3.0932710339 3.1078652246 3.1078652246 
3.1078652246 3.0932710339 3.0786768432 3.0786768432 3.0786768432 3.0932710339 3.1078652246 3.1078652246 3.0932710339 
3.0786768432 3.0786768432 3.0932710339 3.0932710339 3.1078652246 3.1078652246 3.1078652246 3.0932710339 3.0786768432 
3.0786768432 3.0932710339 3.1078652246 3.1078652246 3.0932710339 3.0786768432 3.0786768432 3.0932710339 3.1078652246 
3.1078652246 3.1078652246 3.0932710339 3.0786768432 3.0786768432 3.0786768432 3.0932710339 3.1078652246 3.1078652246 
3.1078652246 3.0932710339 3.0786768432 3.0786768432 3.0932710339 3.1078652246 3.1078652246 3.0932710339 3.0786768432 
3.0786768432 3.0786768432 3.0932710339 3.1078652246 3.1078652246 3.1078652246 3.0932710339 3.0786768432 3.0786768432 
3.0932710339 3.1078652246 3.1078652246 3.0932710339 3.0786768432 3.0786768432 3.0932710339 3.1078652246 3.1078652246 
3.1078652246 3.0932710339 3.0786768432 3.0786768432 3.0932710339 3.1078652246 3.1078652246 3.1078652246 3.0932710339 
3.0786768432 3.0786768432 3.0932710339 3.0932710339 3.1078652246 3.1078652246 3.0932710339 3.0786768432 3.0786768432 
3.0786768432 3.0932710339 3.1078652246 3.1078652246 3.1078652246 3.0932710339 3.0786768432 3.0786768432 3.0932710339 
3.1078652246 3.1078652246 3.0932710339 3.0786768432 3.0786768432 3.0932710339 3.1078652246 3.1078652246 3.0932710339 
3.0786768432 3.0786768432 3.0932710339 3.1078652246 3.1078652246 3.1078652246 3.1078652246 3.0932710339 3.0932710339 
3.0786768432 3.0786768432 3.0932710339 3.1078652246 3.1078652246 3.0932710339 3.0786768432 3.0786768432 3.0786768432 
3.0932710339 3.1078652246 3.1078652246 3.0932710339 3.0786768432 3.0786768432 3.0932710339 3.0932710339 3.1078652246 
3.1078652246 3.0932710339 3.0786768432 3.0786768432 3.0786768432 3.0932710339 3.1078652246 3.1078652246 3.1078652246 
3.0932710339 3.0786768432 3.0786768432 3.0786768432 3.0786768432 3.0786768432 3.0932710339 3.1078652246 3.1078652246 
3.1078652246 3.0932710339 3.0786768432 3.0786768432 3.0786768432 3.0786768432 3.0786768432 3.0786768432 3.0932710339 
3.1078652246 3.1224594153 3.1224594153 3.1224594153 3.1224594153 3.1224594153 3.1224594153 3.1078652246 3.0932710339 
3.0786768432 3.0786768432 3.0786768432 3.0786768432 3.0786768432 3.0786768432 3.0786768432 3.0932710339 3.1078652246 
3.1078652246 3.1224594153 3.1224594153 3.1224594153 3.1224594153 3.1224594153 3.1224594153 3.1224594153 3.1078652246 
3.0932710339 3.0786768432 3.0786768432 3.0786768432 3.0786768432 3.0786768432 3.0786768432 3.0640826525 3.0640826525 
3.0640826525 3.0640826525 3.0640826525 3.0640826525 3.0640826525 3.0786768432 3.0932710339 3.1078652246 3.1224594153 
3.1224594153 3.1224594153 3.1078652246 3.0932710339 3.0786768432 3.0786768432 3.0786768432 3.0786768432 3.0786768432 
3.0640826525 3.0640826525 3.0640826525 3.0640826525 3.0786768432 3.0932710339 3.1078652246 3.1224594153 3.1224594153 
3.1224594153 3.1078652246 3.0932710339 3.0932710339 3.0786768432 3.0786768432 3.0786768432 3.0786768432 3.0786768432 
3.0640826525 3.0640826525 3.0640826525 3.0786768432 3.0932710339 3.1078652246 3.1078652246 3.1224594153 3.1224594153 
3.1224594153 3.1224594153 3.1078652246 3.0932710339 3.0786768432 3.0786768432 3.0786768432 3.0786768432 3.0640826525 
3.0640826525 3.0640826525 3.0640826525 3.0786768432 3.0932710339 3.1078652246 3.1224594153 3.1224594153 3.1078652246 
3.1078652246 3.0932710339 3.0786768432 3.0786768432 3.0786768432 3.0786768432 3.0640826525 3.0640826525 3.0786768432 
3.0932710339 3.1078652246 3.1224594153 3.1224594153 3.1224594153 3.1224594153 3.1078652246 3.0932710339 3.0786768432 
3.0786768432 3.0786768432 3.0786768432 3.0640826525 3.0640826525 3.0640826525 3.0640826525 3.0786768432 3.0932710339 
3.0932710339 3.1078652246 3.1224594153 3.1224594153 3.1224594153 3.1224594153 3.1078652246 3.0932710339 3.0786768432 
3.0786768432 3.0786768432 3.0786768432 3.0786768432 3.0640826525 3.0640826525 3.0786768432 3.0932710339 3.1078652246 
3.1078652246 3.1224594153 3.1224594153 3.1078652246 3.0932710339 3.0786768432 3.0786768432 3.0786768432 3.0786768432 
3.0640826525 3.0640826525 3.0786768432 3.0932710339 3.1078652246 3.1224594153 3.1224594153 3.1224594153 3.1078652246 
3.0932710339 3.0786768432 3.0786768432 3.0786768432 3.0640826525 3.0640826525 3.0640826525 3.0640826525 3.0786768432 
3.0932710339 3.1078652246 3.1224594153 3.1224594153 3.1224594153 3.1078652246 3.0932710339 3.0786768432 3.0786768432 
3.0786768432 3.0640826525 3.0640826525 3.0786768432 3.0932710339 3.1078652246 3.1224594153 3.1224594153 3.1224594153 
3.1078652246 3.0932710339 3.0932710339 3.0786768432 3.0786768432 3.0786768432 3.0786768432 3.0786768432 3.0640826525 
3.0640826525 3.0640826525 3.0640826525 3.0786768432 3.0932710339 3.1078652246 3.1224594153 3.1224594153 3.1224594153 
3.1078652246 3.1078652246 3.0932710339 3.0786768432 3.0786768432 3.0786768432 3.0786768432 3.0640826525 3.0640826525 
3.0786768432 3.0932710339 3.0932710339 3.1078652246 3.1078652246 3.1224594153 3.1224594153 3.1078652246 3.0932710339 
3.0786768432 3.0786768432 3.0786768432 3.0640826525 3.0640826525 3.0786768432 3.0932710339 3.1078652246 3.1224594153 
3.1224594153 3.1224594153 3.1078652246 3.0932710339 3.0786768432 3.0786768432 3.0786768432 3.0640826525 3.0640826525 
3.0786768432 3.0932710339 3.1078652246 3.1224594153 3.1224594153 3.1224594153 3.1078652246 3.0932710339 3.0786768432 
3.0786768432 3.0786768432 3.0786768432 3.0640826525 3.0640826525 3.0786768432 3.0932710339 3.1078652246 3.1078652246 
3.1224594153 3.1224594153 3.1078652246 3.0932710339 3.0786768432 3.0786768432 3.0786768432 3.0640826525 3.0640826525 
3.0640826525 3.0640826525 3.0786768432 3.0786768432 3.0932710339 3.1078652246 3.1224594153 3.1224594153 3.1224594153 
3.1224594153 3.1078652246 3.0932710339 3.0786768432 3.0786768432 3.0786768432 3.0786768432 3.0786768432 3.0640826525 
3.0640826525 3.0786768432 3.0786768432 3.0932710339 3.1078652246 3.1224594153 3.1224594153 3.1078652246 3.0932710339 
3.0786768432 3.0786768432 3.0786768432 3.0640826525 3.0640826525 3.0786768432 3.0932710339 3.1078652246 3.1224594153 
3.1224594153 3.1224594153 3.1078652246 3.0932710339 3.0786768432 3.0786768432 3.0786768432 3.0640826525 3.0640826525 
3.0786768432 3.0932710339 3.1078652246 3.1078652246 3.1224594153 3.1224594153 3.1078652246 3.0932710339 3.0786768432 
3.0786768432 3.0786768432 3.0640826525 3.0494884618 3.0494884618 3.0494884618 3.0494884618 3.0494884618 3.0494884618 
3.0640826525 3.0786768432 3.0932710339 3.0932710339 3.1078652246 3.1224594153 3.1224594153 3.1078652246 3.0932710339 
3.0786768432 3.0786768432 3.0786768432 3.0640826525 3.0640826525 3.0494884618 3.0494884618 3.0494884618 3.0640826525 
3.0786768432 3.0932710339 3.1078652246 3.1224594153 3.1224594153 3.137053606 3.137053606 3.137053606 3.137053606 
3.137053606 3.1224594153 3.1078652246 3.0932710339 3.0786768432 3.0786768432 3.0786768432 3.0786768432 3.0640826525 
3.0494884618 3.0494884618 3.0494884618 3.0494884618 3.0640826525 3.0786768432 3.0932710339 3.1078652246 3.1078652246 
3.1224594153 3.137053606 3.137053606 3.137053606 3.137053606 3.1224594153 3.1078652246 3.0932710339 3.0786768432 
3.0786768432 3.0786768432 3.0786768432 3.0640826525 3.0494884618 3.0494884618 3.0640826525 3.0786768432 3.0932710339 
3.1078652246 3.1224594153 3.137053606 3.137053606 3.137053606 3.1224594153 3.1224594153 3.1078652246 3.0932710339 
3.0786768432 3.0786768432 3.0786768432 3.0640826525 3.0494884618 3.0494884618 3.0494884618 3.0640826525 3.0786768432 
3.0932710339 3.0932710339 3.1078652246 3.1224594153 3.1224594153 3.137053606 3.137053606 3.137053606 3.1224594153 
3.1078652246 3.0932710339 3.0786768432 3.0786768432 3.0786768432 3.0640826525 3.0494884618 3.0494884618 3.0494884618 
3.0640826525 3.0786768432 3.0932710339 3.1078652246 3.1078652246 3.1224594153 3.137053606 3.137053606 3.137053606 
3.1224594153 3.1078652246 3.0932710339 3.0786768432 3.0786768432 3.0786768432 3.0786768432 3.0640826525 3.0494884618 
3.0494884618 3.0494884618 3.0640826525 3.0786768432 3.0932710339 3.1078652246 3.1224594153 3.137053606 3.137053606 
3.1224594153 3.1078652246 3.0932710339 3.0786768432 3.0786768432 3.0786768432 3.0786768432 3.0640826525 3.0494884618 
3.0494884618 3.0640826525 3.0786768432 3.0932710339 3.1078652246 3.1224594153 3.137053606 3.137053606 3.1224594153 
3.1078652246 3.0932710339 3.0932710339 3.0786768432 3.0786768432 3.0786768432 3.0786768432 3.0786768432 3.0640826525 
3.0494884618 3.0494884618 3.0494884618 3.0640826525 3.0786768432 3.0932710339 3.1078652246 3.1224594153 3.1224594153 
3.137053606 3.137053606 3.1224594153 3.1078652246 3.0932710339 3.0786768432 3.0786768432 3.0786768432 3.0786768432 
3.0640826525 3.0640826525 3.0494884618 3.0494884618 3.0640826525 3.0786768432 3.0932710339 3.1078652246 3.1078652246 
3.1224594153 3.137053606 3.137053606 3.1224594153 3.1078652246 3.0932710339 3.0786768432 3.0786768432 3.0786768432 
3.0786768432 3.0786768432 3.0640826525 3.0494884618 3.0348942711 3.0348942711 3.0348942711 3.0348942711 3.0494884618 
3.0640826525 3.0786768432 3.0786768432 3.0932710339 3.0932710339 3.1078652246 3.1224594153 3.137053606 3.137053606 
3.137053606 3.1224594153 3.1078652246 3.0932710339 3.0786768432 3.0640826525 3.0640826525 3.0640826525 3.0640826525 
3.0640826525 3.0786768432 3.0786768432 3.0786768432 3.0786768432 3.0786768432 3.0786768432 3.0640826525 3.0494884618 
3.0348942711 3.0348942711 3.0348942711 3.0348942711 3.0494884618 3.0494884618 3.0640826525 3.0786768432 3.0932710339 
3.1078652246 3.1224594153 3.137053606 3.137053606 3.1224594153 3.1078652246 3.0932710339 3.0786768432 3.0640826525 
3.0640826525 3.0640826525 3.0640826525 3.0786768432 3.0786768432 3.0786768432 3.0786768432 3.0640826525 3.0494884618 
3.0348942711 3.0348942711 3.0348942711 3.0348942711 3.0494884618 3.0640826525 3.0786768432 3.0932710339 3.1078652246 
3.1224594153 3.1224594153 3.137053606 3.137053606 3.137053606 3.1224594153 3.1078652246 3.0932710339 3.0786768432 
3.0786768432 3.0640826525 3.0640826525 3.0786768432 3.0786768432 3.0786768432 3.0640826525 3.0494884618 3.0348942711 
3.0348942711 3.0494884618 3.0640826525 3.0786768432 3.0932710339 3.1078652246 3.1224594153 3.137053606 3.137053606 
3.1224594153 3.1078652246 3.0932710339 3.0786768432 3.0640826525 3.0640826525 3.0640826525 3.0640826525 3.0786768432 
3.0786768432 3.0786768432 3.0640826525 3.0494884618 3.0348942711 3.0348942711 3.0494884618 3.0640826525 3.0786768432 
3.0932710339 3.1078652246 3.1078652246 3.1224594153 3.137053606 3.137053606 3.137053606 3.1224594153 3.1224594153 
3.1078652246 3.0932710339 3.0786768432 3.0640826525 3.0640826525 3.0640826525 3.0786768432 3.0786768432 3.0640826525 
3.0494884618 3.0494884618 3.0348942711 3.0348942711 3.0203000804 3.0203000804 3.0203000804 3.0203000804 3.0348942711 
3.0348942711 3.0494884618 3.0640826525 3.0786768432 3.0786768432 3.0932710339 3.1078652246 3.1224594153 2.9473291268 
2.9473291268 2.9619233175 2.9619233175 2.9765175082 2.9765175082 2.991111699 2.991111699 3.0057058897 3.0057058897 
3.0203000804 3.0203000804 3.0348942711 3.0348942711 3.0494884618 3.0494884618 3.0640826525 3.0640826525 3.0786768432 
3.0786768432 3.0932710339 3.0932710339 3.1078652246 3.1078652246 3.1224594153 3.1224594153 2.9473291268 2.9619233175 
2.9765175082 2.991111699 3.0057058897 3.0203000804 3.0348942711 3.0494884618 3.0640826525 3.0786768432 3.0932710339 
3.1078652246 3.1224594153 2.9473291268 2.9619233175 2.9765175082 2.991111699 3.0057058897 3.0203000804 3.0348942711 
3.0494884618 3.0640826525 3.0786768432 3.0932710339 3.1078652246 3.1224594153 3.137053606 2.9473291268 2.9619233175 
2.9765175082 2.991111699 3.0057058897 3.0203000804 3.0348942711 3.0494884618 3.0640826525 3.0786768432 3.0932710339 
3.1078652246 3.1224594153 3.137053606 2.9473291268 2.9619233175 2.9765175082 2.991111699 3.0057058897 3.0203000804 
3.0348942711 3.0494884618 3.0640826525 3.0786768432 3.0932710339 3.1078652246 3.1224594153 3.137053606 2.9473291268 
2.9619233175 2.9765175082 2.991111699 3.0057058897 3.0203000804 3.0348942711 3.0494884618 3.0640826525 3.0786768432 
3.0932710339 3.1078652246 3.1224594153 3.137053606 2.9473291268 2.9619233175 2.9765175082 2.991111699 3.0057058897 
3.0203000804 3.0348942711 3.0494884618 3.0640826525 3.0786768432 3.0932710339 3.1078652246 3.1224594153 3.137053606 
2.9473291268 2.9619233175 2.9765175082 2.991111699 3.0057058897 3.0203000804 3.0348942711 3.0494884618 3.0640826525 
3.0786768432 3.0932710339 3.1078652246 3.1224594153 3.137053606 2.9473291268 2.9619233175 2.9765175082 2.991111699 
3.0057058897 3.0203000804 3.0348942711 3.0494884618 3.0640826525 3.0786768432 3.0932710339 3.1078652246 3.1224594153 
3.137053606 2.9473291268 2.9619233175 2.9765175082 2.991111699 3.0057058897 3.0203000804 3.0348942711 3.0494884618 
3.0640826525 3.0786768432 3.0932710339 3.1078652246 3.1224594153 3.137053606 3.137053606 3.1224594153 3.1078652246 
3.0932710339 3.0786768432 3.0640826525 3.0640826525 3.0786768432 3.0786768432 3.0786768432 3.0640826525 3.0494884618 
3.0348942711 3.0203000804 3.0203000804 3.0203000804 3.0348942711 3.0494884618 3.0640826525 3.0786768432 3.0932710339 
3.1078652246 2.9473291268 2.9473291268 2.9619233175 2.9619233175 2.9765175082 2.9765175082 2.991111699 2.991111699 
3.0057058897 3.0057058897 3.0203000804 3.0203000804 3.0348942711 3.0348942711 3.0494884618 3.0494884618 3.0640826525 
3.0640826525 3.0786768432 3.0786768432 3.0932710339 3.0932710339 3.1078652246 3.1078652246 2.9473291268 2.9619233175 
2.9765175082 2.991111699 3.0057058897 3.0203000804 3.0348942711 3.0494884618 3.0640826525 3.0786768432 3.0932710339 
3.1078652246 2.9473291268 2.9619233175 2.9765175082 2.991111699 3.0057058897 3.0203000804 3.0348942711 3.0494884618 
3.0640826525 3.0786768432 3.0932710339 3.1078652246 2.9473291268 2.9619233175 2.9765175082 2.991111699 3.0057058897 
3.0203000804 3.0348942711 3.0494884618 3.0640826525 3.0786768432 3.0932710339 3.1078652246 3.1224594153 2.9473291268 
2.9619233175 2.9765175082 2.991111699 3.0057058897 3.0203000804 3.0348942711 3.0494884618 3.0640826525 3.0786768432 
3.0932710339 3.1078652246 3.1224594153 2.9473291268 2.9619233175 2.9765175082 2.991111699 3.0057058897 3.0203000804 
3.0348942711 3.0494884618 3.0640826525 3.0786768432 3.0932710339 3.1078652246 3.1224594153 2.9473291268 2.9619233175 
2.9765175082 2.991111699 3.0057058897 3.0203000804 3.0348942711 3.0494884618 3.0640826525 3.0786768432 3.0932710339 
3.1078652246 3.1224594153 2.9473291268 2.9619233175 2.9765175082 2.991111699 3.0057058897 3.0203000804 3.0348942711 
3.0494884618 3.0640826525 3.0786768432 3.0932710339 3.1078652246 3.1224594153 2.9473291268 2.9619233175 2.9765175082 