# vtk DataFile Version 4.2
vtk output
ASCII
DATASET UNSTRUCTURED_GRID
POINTS 1740 double
2144.07 -94.44003 0 2911 0 0 16.54298 -37.82236 0 
5.09149 -21.30132 0 1.27433 -10.75385 0 0 0 0 
2.54575 15.14293 0 6.36291 23.76126 0 14.00014 34.89063 0 
30.50239 50.70793 0 33.39435 -52.93479 0 2050.91 -103.7862 0 
60.1465 -69.72165 0 88.83633 -83.2817 0 118.7656 -94.71113 0 
153.4168 -105.7022 0 199.5806 -117.771 0 261.4466 -130.7139 0 
345.846 -144.1892 0 460.3522 -157.0592 0 608.4185 -167.1903 0 
783.2313 -172.4016 0 941.0559 -172.4533 0 1063.409 -170.1096 0 
1164.153 -166.8746 0 1263.449 -162.682 0 1375.468 -156.8941 0 
1513.293 -148.414 0 1665.281 -137.5317 0 1791.864 -127.3721 0 
2195.451 -89.09491 0 2273.924 -80.67077 0 2383.731 -68.3513 0 
2517.64 -52.47337 0 2649.227 -35.9232 0 2740.773 -23.82991 0 
2804.387 -15.13419 0 2848.802 -8.916218 0 2881.944 -4.196067 0 
56.61447 67.79801 0 84.09687 81.25172 0 112.4783 92.48395 0 
142.1748 102.3504 0 174.8563 111.6168 0 213.124 120.8806 0 
260.3759 130.5151 0 324.6539 141.1779 0 418.1422 152.9178 0 
535.6656 162.9871 0 690.9154 170.4255 0 902.6513 172.7852 0 
1100.32 169.0517 0 1270.99 162.3262 0 1462.794 151.6837 0 
1631.287 140.0952 0 1747.993 131 0 1922.788 115.9027 0 
2069.56 101.951 0 2128.804 96.0021 0 2297.147 78.11721 0 
2414.379 64.80104 0 2554.023 47.99319 0 2673.693 32.73885 0 
2757.97 21.50315 0 2814.297 13.7575 0 2852.02 8.460961 0 
2882.272 4.148909 0 1791.052 127.4402 0 1366.894 157.3738 0 
1444.38 -152.8302 0 1547.039 146.1296 0 1589.287 -143.1614 0 
1878.731 119.8675 0 1997.072 108.9828 0 1185.654 166.0472 0 
1882.536 -119.5292 0 1971.323 -111.4145 0 1684.777 136.0292 0 
2099.317 -98.9855 0 2234.809 84.9091 0 2181.695 90.53914 0 
1728.573 -132.5703 0 1718.815 133.3509 0 1834.825 123.7132 0 
1960.305 112.4444 0 2033.69 105.4648 0 2099.184 98.99892 0 
2214.291 -69.108164226 396.8421 2955.512 17.674131809 396.8421 158.0786 -17.539884815 396.8421 
147.0109 -1.6668028956 396.8421 143.3217 8.492444619 396.8421 142.09 18.869728332 396.8421 
144.5505 33.514371901 396.8421 148.2398 41.86643279 396.8421 155.621 52.671538684 396.8421 
171.5701 68.067810146 396.8421 174.3652 -32.014118912 396.8421 2124.254 -77.780907572 396.8421 
200.2206 -48.037001581 396.8421 227.9488 -60.933792764 396.8421 256.8748 -71.769013091 396.8421 
290.3647 -82.155010354 396.8421 334.981 -93.516098862 396.8421 394.7733 -105.63990161 396.8421 
476.3434 -118.17551681 396.8421 587.0114 -130.02007313 396.8421 730.1145 -139.1572461 396.8421 
899.0676 -143.58323882 396.8421 1051.602 -143.22972297 396.8421 1169.853 -140.74678472 396.8421 
1267.221 -137.50224023 396.8421 1363.188 -133.38753759 396.8421 1471.452 -127.78590422 396.8421 
1604.657 -119.67124162 396.8421 1751.55 -109.35717435 396.8421 1873.891 -99.797275957 396.8421 
2263.949 -64.15862911 396.8421 2339.792 -56.371524086 396.8421 2445.918 -45.009743058 396.8421 
2575.338 -30.403691572 396.8421 2702.515 -15.214313499 396.8421 2790.992 -4.1326162267 396.8421 
2852.473 3.8287410111 396.8421 2895.4 9.5186355195 396.8421 2927.431 13.836529026 396.8421 
196.807 84.75926158 396.8421 223.3682 97.943615692 396.8421 250.7983 108.98378535 396.8421 
279.4994 118.70843654 396.8421 311.0855 127.86713547 396.8421 348.0705 137.05093917 396.8421 
393.7383 146.63655829 396.8421 455.8617 157.29550931 396.8421 546.2162 169.11618949 396.8421 
659.8003 179.37712353 396.8421 809.846 187.15172062 396.8421 1014.485 190.02463558 396.8421 
1205.528 186.75822786 396.8421 1370.477 180.39257946 396.8421 1555.851 170.08314489 396.8421 
1718.696 158.71204988 396.8421 1831.49 149.72243719 396.8421 2000.426 134.71053736 396.8421 
2142.278 120.76173715 396.8421 2199.537 114.79625076 396.8421 2362.236 96.808827185 396.8421 
2475.539 83.373875766 396.8421 2610.501 66.375701416 396.8421 2726.16 50.917929565 396.8421 
2807.613 39.517789379 396.8421 2862.05 31.652924085 396.8421 2898.509 26.272501737 396.8421 
2927.749 21.89089403 396.8421 1873.106 146.19188026 396.8421 1463.165 175.61726061 396.8421 
1538.054 -123.88646219 396.8421 1637.272 164.64706278 396.8421 1678.104 -114.68162862 396.8421 
1957.846 138.66217317 396.8421 2072.22 127.80005506 396.8421 1288 183.94010015 396.8421 
1961.524 -92.452348519 396.8421 2047.334 -84.879166749 396.8421 1770.393 154.69923234 396.8421 
2171.038 -73.323106625 396.8421 2301.989 103.64815101 396.8421 2250.655 109.30985853 396.8421 
1812.721 -104.68151473 396.8421 1803.29 152.05047316 396.8421 1915.411 142.48905833 396.8421 
2036.686 131.25891288 396.8421 2107.61 124.28066842 396.8421 2170.909 117.80267073 396.8421 
2284.511 -48.78272796 793.6842 3000.027 32.446484821 793.6842 299.6143 -2.5401979868 793.6842 
288.9304 12.704320401 793.6842 285.3691 22.480006961 793.6842 284.1801 32.479612389 793.6842 
286.5551 46.614646341 793.6842 290.1167 54.688738033 793.6842 297.2417 65.148486631 793.6842 
312.6379 80.081865556 793.6842 315.336 -16.407581279 793.6842 2197.597 -56.975703873 793.6842 
340.2947 -31.717586833 793.6842 367.0612 -44.005686999 793.6842 394.9839 -54.302501942 793.6842 
427.3123 -64.146145669 793.6842 470.3812 -74.87969571 793.6842 528.0998 -86.285101987 793.6842 
606.8411 -98.005486231 793.6842 713.6708 -108.96915951 793.6842 851.8104 -117.2571533 793.6842 
1014.904 -121.00811318 793.6842 1162.147 -120.29346176 793.6842 1276.298 -117.66961418 793.6842 
1370.288 -114.39109175 793.6842 1462.927 -110.31002839 793.6842 1567.436 -104.8215086 793.6842 
1696.021 -96.948353058 793.6842 1837.82 -87.024041499 793.6842 1955.917 -77.882534458 793.6842 
2332.447 -44.115822131 793.6842 2405.659 -36.784926141 793.6842 2508.105 -26.11142178 793.6842 
2633.037 -12.423580077 793.6842 2755.801 1.7784506519 793.6842 2841.209 12.122831041 793.6842 
2900.561 19.547123913 793.6842 2941.997 24.849979035 793.6842 2972.917 28.872504077 793.6842 
336.9995 96.312783587 793.6842 362.6396 109.16631509 793.6842 389.1182 119.95392892 793.6842 
416.8239 129.47650727 793.6842 447.3145 138.46431975 793.6842 483.0167 147.49812461 793.6842 
527.1009 156.95407369 793.6842 587.0697 167.50911114 793.6842 674.2905 179.28459033 793.6842 
783.9349 189.61025194 793.6842 928.7766 197.6044457 793.6842 1126.317 200.92114787 793.6842 
1310.735 198.14497797 793.6842 1469.963 192.22360829 793.6842 1648.908 182.40950506 793.6842 
1806.105 171.45478045 793.6842 1914.987 162.73765933 793.6842 2078.064 148.10421062 793.6842 
2214.996 134.44253275 793.6842 2270.269 128.58461313 793.6842 2427.326 110.87615499 793.6842 
2536.699 97.612326079 793.6842 2666.98 80.79409905 793.6842 2778.628 65.470955678 793.6842 
2857.255 54.1555324 793.6842 2909.806 46.342944744 793.6842 2945.001 40.995720859 793.6842 
2973.224 36.639755457 793.6842 1955.16 159.30373169 793.6842 1559.437 187.69779435 793.6842 
1631.729 -101.02909211 793.6842 1727.505 177.18454428 793.6842 1766.921 -92.137909923 793.6842 
2036.96 151.96398729 793.6842 2147.368 141.34262193 793.6842 1390.347 195.54816495 793.6842 
2040.511 -70.887830868 793.6842 2123.346 -63.697639075 793.6842 1856.009 167.56867321 793.6842 
2242.759 -52.76192271 793.6842 2369.167 117.61677156 793.6842 2319.614 123.19009489 793.6842 
1896.869 -82.547222222 793.6842 1887.765 164.99898345 793.6842 1995.998 155.69697015 793.6842 
2113.066 144.72875953 793.6842 2181.531 137.89396653 793.6842 2242.634 131.53785447 793.6842 
2354.732 -32.950151735 1190.526 3044.539 44.214686935 1190.526 441.15 8.157783822 1190.526 
430.8497 22.791127528 1190.526 427.4164 32.188101607 1190.526 426.2701 41.810237922 1190.526 
428.5601 55.428049019 1190.526 431.9934 63.215543524 1190.526 438.8627 73.314008848 1190.526 
453.7057 87.752021806 1190.526 456.3069 -5.1298500988 1190.526 2270.94 -40.79305796 1190.526 
480.3688 -19.770368551 1190.526 506.1737 -31.49585367 1190.526 533.0934 -41.301398679 1190.526 
564.26 -50.655817579 1190.526 605.7815 -60.829943198 1190.526 661.4265 -71.60313793 1190.526 
737.3385 -82.616579181 1190.526 840.33 -92.828143737 1190.526 973.5064 -100.40285331 1190.526 
1130.74 -103.59490314 1190.526 1272.693 -102.58262491 1190.526 1382.742 -99.840704488 1190.526 
1473.356 -96.529930188 1190.526 1562.666 -92.469109673 1190.526 1663.42 -87.060702337 1190.526 
1787.385 -79.363409309 1190.526 1924.09 -69.724407337 1190.526 2037.944 -60.889289998 1190.526 
2400.946 -28.489365493 1190.526 2471.527 -21.491230093 1190.526 2570.292 -11.319786933 1190.526 
2690.735 1.6976768403 1190.526 2809.091 15.177503542 1190.526 2891.43 24.981519173 1190.526 
2948.647 32.011533569 1190.526 2988.597 37.029754764 1190.526 3018.403 40.834914654 1190.526 
477.1918 103.47363749 1190.526 501.9109 115.94722861 1190.526 527.4382 126.43353569 1190.526 
554.1485 135.70488384 1190.526 583.5435 144.46979961 1190.526 617.963 153.29562227 1190.526 
660.4633 162.55407442 1190.526 718.2775 172.91964059 1190.526 802.3645 184.5389777 1190.526 
908.0698 194.81165812 1190.526 1047.707 202.90604133 1190.526 1238.151 206.56793098 1190.526 
1415.942 204.25420328 1190.526 1569.449 198.80113153 1190.526 1741.965 189.56095666 1190.526 
1893.514 179.1350052 1190.526 1998.484 170.7913766 1190.526 2155.702 156.72212216 1190.526 
2287.714 143.53459868 1190.526 2341.001 137.86762243 1190.526 2492.415 120.69920245 1190.526 
2597.858 107.8090301 1190.526 2723.46 91.433501651 1190.526 2831.095 76.488470616 1190.526 
2906.899 65.439130129 1190.526 2957.56 57.804617082 1190.526 2991.49 52.576808999 1190.526 
3018.699 48.316747466 1190.526 2037.214 167.4961336 1190.526 1655.708 194.55748296 1190.526 
1725.403 -83.345914399 1190.526 1817.738 184.59832237 1190.526 1855.738 -74.684062907 1190.526 
2116.075 160.43947992 1190.526 2222.516 150.20061109 1190.526 1492.694 201.88529052 1190.526 
2119.498 -54.150709867 1190.526 2199.357 -47.24026708 1190.526 1941.625 175.4194803 1190.526 
2314.479 -36.757351663 1190.526 2436.346 127.24032606 1190.526 2388.573 132.64323589 1190.526 
1981.017 -65.393101845 1190.526 1972.24 172.95888874 1190.526 2076.584 164.03054628 1190.526 
[...]
POINT_DATA 1740
FIELD FieldData 1
Pressure 1 1740 double
3.1034912852 3.0182408818 3.0091505531 2.9866046346 2.9762337853 2.9520633279 2.967693334 2.9862592792 3.0181990858 
3.0311938993 3.0117540125 3.1071188018 3.0359756905 3.0501808303 3.0666489409 3.0647373827 3.081742595 3.0866932516 
3.1071304709 3.1114654784 3.1292496123 3.1371764061 3.1389343126 3.1430042392 3.1385048335 3.134407269 3.1312512302 
3.1276479231 3.1220196764 3.1171759028 3.1007115505 3.097671612 3.0918942551 3.0843478619 3.0733783388 3.0638437234 
3.0532674549 3.0454190745 3.0349770628 3.0673349838 3.080340029 3.0929468812 3.1058189979 3.1115595211 3.1196027186 
3.1270010122 3.1353628517 3.1517171801 3.1653434781 3.1820166049 3.1941650639 3.2012119933 3.2080484214 3.2141738204 
3.2182645199 3.2209540252 3.2223770577 3.2248554165 3.1299749298 3.0846145677 3.080290875 3.0711342722 3.0616784354 
3.051977574 3.0417847433 3.0351310877 3.0331030452 3.2212584223 3.211519919 3.1301218218 3.2151425332 3.1250479446 
3.2220040505 3.2230656062 3.2075928301 3.1133978744 3.1100687737 3.2185831038 3.1053797336 3.0909257151 3.0931832907 
3.1196862378 3.2201086193 3.2223417219 3.2234800065 3.2238067956 3.2364881573 3.1001922241 3.0231597972 3.0260124759 
2.9989353237 3.0071931619 2.9845950913 2.9953307029 3.0084514682 3.034966635 3.0535799014 3.0357102554 3.1042603694 
3.0551812238 3.0679938606 3.0817174998 3.0854274002 3.1005058162 3.1091429077 3.1223212708 3.1271397595 3.1364578587 
3.1401800372 3.1418294078 3.1416756406 3.1377208224 3.1332207512 3.1285512294 3.1242007444 3.1191640851 3.1144263332 
3.0977212956 3.0940746213 3.0883218756 3.0810652446 3.0700080186 3.0605091082 3.0504629363 3.0433698759 3.0255799348 
3.0862670099 3.1065909905 3.1183212788 3.1269000167 3.1357642381 3.140647475 3.1463050601 3.1565874389 3.1691282316 
3.1794267683 3.1890139814 3.1975767544 3.2042355585 3.2111456486 3.2151155611 3.2184017803 3.220616164 3.2235588634 
3.2131707368 3.0836263051 3.0920045657 3.0851358122 3.0762449532 3.0658098367 3.0559267407 3.0451296102 3.0391302704 
3.040247214 3.2214412774 3.2134966996 3.1273562512 3.2169881597 3.1215808764 3.2228525447 3.224493313 3.2091574266 
3.1104803811 3.1070369301 3.219282106 3.1025629662 3.0920605647 3.0873986397 3.1171382962 3.2200097942 3.2223435189 
3.2245532807 3.2244174523 3.1336550665 3.0979049944 3.0227698218 3.0277747073 3.0015119097 3.0034077072 2.9834721655 
2.9983450952 3.0108765057 3.0386194802 3.0598459629 3.043290838 3.1018418764 3.0580892275 3.0770894608 3.0952171419 
3.1013761552 3.1139159233 3.1217388802 3.1342212937 3.1395547257 3.1459054338 3.1472342385 3.1458525967 3.1431259781 
3.1374137969 3.1319861855 3.1272786897 3.1219735384 3.1171555892 3.1122342912 3.0956363884 3.0920401533 3.0862804774 
3.0789321015 3.0678598098 3.0580861743 3.0486669483 3.0417026331 3.0276922928 3.0919879848 3.1141039571 3.1328092171 
3.1419530092 3.1549878865 3.1624570187 3.1723140073 3.176775708 3.1855175457 3.1957253849 3.201567354 3.2080277989 
3.2109043499 3.2180016266 3.2214050407 3.2221960852 3.2240116688 3.2264909427 3.0839531375 3.0834711655 3.0853027977 
3.0811280062 3.0740335356 3.064489475 3.055521645 3.0456005343 3.038690435 3.0409631663 3.2247154653 3.2193939333 
3.1251253549 3.2218851197 3.1194504172 3.2257170057 3.2262442808 3.2149992796 3.1084506253 3.104729875 3.22262963 
3.10034124 3.0869893574 3.0861193218 3.1149774476 3.2231234171 3.2256097761 3.2266985072 3.2252472949 3.0807439966 
3.0962520473 3.0233677518 3.0289496181 3.0017418031 3.0039001672 2.9815993778 2.9926522809 3.006399516 3.0391025974 
3.0601990274 3.0437244668 3.1002088623 3.0640356504 3.0811029629 3.0999380046 3.1082339838 3.1205820088 3.128463094 
3.1399893366 3.1460784393 3.1517385973 3.1511361485 3.1480475152 3.1438052435 3.1374520324 3.1319917621 3.1266316058 
3.1209683092 3.1154428281 3.1106477408 3.0941345886 3.0905133126 3.085128149 3.0776446683 3.0670040522 3.0570229731 
3.0483153361 3.0411807049 3.0290127517 3.0955239239 3.1190227819 3.135079372 3.1478136625 3.1546261112 3.1662398721 
3.1792078535 3.1890520344 3.1971378486 3.2077938763 3.2140099961 3.2190433788 3.2206043513 3.2266664454 3.229211411 
3.2293637399 3.2306180666 3.2321338131 3.0846574885 3.0876829507 3.0862120945 3.0819854516 3.0745613135 3.0648602491 
3.0554841345 3.0464859187 3.0390263639 3.0418477867 3.2308289481 3.22802597 3.1242537385 3.229630591 3.1180748325 
3.2314527067 3.2222653118 3.2241666433 3.1070388082 3.1031826405 3.229631217 3.0985236684 3.0874693926 3.0873257912 
3.1129427468 3.2298019074 3.2312787423 3.2327529562 3.0838506992 3.0866010883 3.0952235458 3.0245363287 3.0310762061 
3.0024442352 3.0087439101 2.9859275929 2.994631855 3.0072847253 3.0412972004 3.061823186 3.0450956798 3.0990199944 
3.0664433763 3.083684662 3.1004263484 3.1100289751 3.1225490027 3.1328509614 3.1426389369 3.1492886915 3.1547519813 
3.1528115737 3.1485162028 3.1432383505 3.1364325857 3.1307980917 3.1252092664 3.1197108132 3.1141172775 3.1090665635 
3.0929916803 3.089260197 3.0841806522 3.0766824355 3.0664512497 3.0566440614 3.0482292084 3.0408391892 3.0296095824 
3.0971406255 3.1209888765 3.1365309361 3.1498018307 3.1594326515 3.170463952 3.1821154054 3.1881480396 3.1995470489 
3.2127729664 3.2226794219 3.2269128698 3.2295090891 3.2351640028 3.2372114788 3.2367170907 3.2377996597 3.2386176424 
3.0903716751 3.0887999788 3.0887132458 3.0844334558 3.0774033587 3.0674126688 3.0578313082 3.0488573635 3.0411623301 
3.0434094045 3.2379602608 3.236349679 3.1230276424 3.2372347414 3.1168265099 3.2382756647 3.1193484636 3.2328381275 
3.1056275198 3.1019762975 3.2370829092 3.0970839555 3.0901189033 3.089799078 3.111450195 3.2371982313 3.2381196762 
3.2364699833 3.0873297765 3.0885786497 3.0940715389 3.0248922954 3.0322318475 3.0032763823 3.0101013211 2.9870279914 
2.9959816565 3.0088886231 3.042173653 3.0640828864 3.0460630049 3.0978432784 3.0676216909 3.0856838371 3.1015410346 
3.1117040231 3.1241217588 3.1354292529 3.1451391663 3.1524071083 3.1570278677 3.1540849216 3.1486216358 3.1423871341 
3.1354011456 3.129616795 3.1239440487 3.1185400563 3.1129298098 3.1078585552 3.0918487797 3.0881767378 3.0832727605 
3.0758219206 3.0658369448 3.0560525033 3.0478557254 3.0403390703 3.029849379 3.0989341474 3.1231319769 3.1386970563 
3.1518233185 3.1611415114 3.1728375871 3.1856819023 3.1933157288 3.204929686 3.2175524444 3.228931231 3.2349778366 
3.2376117805 3.2439125745 3.2454289597 3.2447630509 3.2450195291 3.2454521628 3.0880114458 3.0897431493 3.089316469 
3.0850423082 3.0781451165 3.0683890389 3.0590990272 3.05009974 3.0422728124 3.0445153475 3.2451403676 3.2446710294 
3.1218270067 3.245354502 3.1156483549 3.2453206289 3.0771020579 3.2409649338 3.104422341 3.100842298 3.2444914384 
3.0959172821 3.0910019062 3.0904555219 3.110252806 3.2446467791 3.2452197547 3.2402209259 3.0840331978 3.0891927281 
3.0933742197 3.0238889711 3.032678395 3.0032923639 3.0096452504 2.9870294575 2.9958429792 3.0092431482 3.0424458051 
3.0647488988 3.0465609126 3.0971910798 3.0682089564 3.0866519843 3.1024490773 3.1130534123 3.1253966892 3.1373767888 
3.1466998213 3.1540767553 3.1588616615 3.1550509284 3.1487129937 3.1418141728 3.1348613063 3.128997598 3.1232373038 
3.117802 3.1122200935 3.1071495297 3.091195894 3.0875652112 3.0827254374 3.0753215061 3.0654456732 3.0555829535 
3.0474697525 3.0399000212 3.0299361318 3.0997778785 3.1241834874 3.1400825424 3.1531836361 3.1629260994 3.1746079744 
3.1872429427 3.1957131018 3.2077822062 3.2213012705 3.2332255912 3.2407670017 3.2447912136 3.251303569 3.252962581 
3.2530284245 3.2527775914 3.2542067507 3.0848226152 3.0871024678 3.0858994255 3.0814528497 3.0747523877 3.0657862481 
3.0569322521 3.0482444465 3.0404244224 3.0432218203 3.2527784663 3.2530938405 3.1211659889 3.2534432515 3.1149226319 
3.2530345355 3.0856756369 3.2483752037 3.1036937352 3.1001134496 3.2527545252 3.0952314293 3.087362866 3.0865944507 
3.1095238662 3.2525348562 3.2529745666 3.1257863893 3.0848275653 3.0837576119 3.0930861839 3.0225482137 3.0329795947 
3.0032928772 3.0098130101 2.9876024642 2.9959051967 3.0094650765 3.0430211137 3.0651873246 3.0467529234 3.0968892273 
3.0685149242 3.0869241397 3.1026397681 3.1136189987 3.1259877189 3.1384253027 3.1476445342 3.1551147185 3.1601183415 
3.1557430631 3.1488454557 3.1415803881 3.1347736492 3.1287639608 3.1230428532 3.1172292799 3.1119385802 3.1068858977 
3.0909062345 3.0873752372 3.0825775211 3.075209663 3.0653678824 3.055441296 3.0473590869 3.0397887133 3.0301100212 
3.1004714057 3.1249508174 3.1410348069 3.1541881738 3.163992761 3.1757630493 3.1883335023 3.1975356268 3.2099355462 
3.2236246865 3.2361435089 3.2451034605 3.2501955441 3.2576304613 3.2607214939 3.2605911697 3.2605034521 3.2689508323 
3.0805228942 3.0810950879 3.0804988312 3.0763816587 3.0701164885 3.0615985309 3.053038476 3.0448593124 3.0372077888 
3.0403615416 3.2609485953 3.2595640469 3.120669796 3.2607012174 3.1145626204 3.2610925295 3.0751957194 3.2540429399 
3.1034034853 3.0999252838 3.260348051 3.0949130918 3.0816926808 3.0807325104 3.1092899894 3.2602144927 3.2615664155 
3.0795748813 3.0796858489 3.0807950209 3.0930055829 3.0219866462 3.0332363185 3.0034021304 3.0102352015 2.9882553474 
2.9962615331 3.0099334314 3.0437896857 3.0659475638 3.0468719963 3.0968007644 3.0684995089 3.0869780175 3.102643456 
3.1139727766 3.1262817433 3.1390643292 3.1482382999 3.1558780011 3.1611175933 3.1564026012 3.1491469991 3.1416974567 
3.1350403676 3.1288393619 3.1232155495 3.1172490395 3.1120358302 3.1069615399 3.09093115 3.0874407774 3.0826408604 
3.0753461412 3.0654984525 3.0556401125 3.0475278196 3.0399837709 3.0301448921 3.10139797 3.1258782729 3.1420403923 
3.1552498446 3.1651056017 3.1769362225 3.1893739626 3.1989976444 3.2118065579 3.2255427887 3.2383457354 3.2481835275 
3.2540625965 3.2619702589 3.2660993137 3.2667698857 3.2674587999 3.2797585663 3.0782882893 3.0786498726 3.0773395539 
3.0735318502 3.0674679237 3.0588302223 3.0503242965 3.0424408747 3.0350827695 3.038135702 3.2675817979 3.264549481 
3.1207418223 3.2669061447 3.1146129954 3.2677230184 3.0763387313 3.2581294924 3.1035124737 3.0999484678 3.266856221 
3.0948618903 3.078688661 3.0780635006 3.1093888862 3.2668486536 3.2677127519 3.076740178 3.075579126 3.0781896618 
3.0933552313 3.0222615689 3.0334842489 3.0034938361 3.010638054 2.988839317 2.9967058281 3.0104687324 3.0444180874 
3.0667348408 3.0465112666 3.097246831 3.0681705561 3.0867608332 3.10260242 3.1141353756 3.1264464187 3.1393572834 
3.1485267598 3.1564389597 3.1619167305 3.1571045031 3.1497345992 3.1421896228 3.135634665 3.129300588 3.1237254031 
3.1176522018 3.1126078978 3.107460107 3.0913483691 3.0878856446 3.0829775939 3.0757372782 3.0658279106 3.0560036278 
3.0478352078 3.0403473696 3.03023227 3.1023984392 3.1269545673 3.1431778928 3.1564573391 3.1663665011 3.1782393663 
3.1906269456 3.2005258178 3.2136815734 3.2274222959 3.2403444832 3.2505356178 3.2568455426 3.2652534041 3.2699250365 
3.2713288055 3.2720035638 3.2861310459 3.0771282056 3.0772373941 3.0756697607 3.0719501566 3.0659944481 3.0573367722 
3.0490143375 3.0412058378 3.0342861115 3.0371153519 3.2724235999 3.2680500774 3.1211684679 3.2710062866 3.1150629223 
3.2730325458 3.0754601281 3.2610639996 3.1039571222 3.1003651061 3.2716128104 3.095219436 3.0769466051 3.076649855 
3.109981856 3.2716960431 3.2730921231 3.0785813354 3.0731656089 3.0770116881 3.0940783232 3.0229457509 3.0336831882 
3.0034918017 3.0107499196 2.9893388113 2.9972204792 3.0110217789 3.0449202907 3.0674442399 3.0460480728 3.098048905 
3.0676855493 3.0862330466 3.1022536299 3.1139894391 3.1261854964 3.1391281033 3.1486055369 3.1564722539 3.1626221639 
3.1579505349 3.1506543109 3.1430864749 3.1365775507 3.1301230712 3.1245707538 3.1184937652 3.113298241 3.1081610509 
3.0920594408 3.0885612119 3.0835673954 3.076316203 3.0663255064 3.0564918368 3.0482366126 3.0408190872 3.0304087648 
3.103413897 3.1281054327 3.1443990106 3.1577784043 3.1677354005 3.1796726699 3.1920867723 3.2021659266 3.2156494275 
3.2293502851 3.2423346972 3.2526730394 3.259109248 3.2678260559 3.2728605163 3.2746797016 3.2755819572 3.2903846133 
3.0746458996 3.0749137587 3.073668642 3.0700919034 3.0644485151 3.0559474936 3.0479069091 3.0402479457 3.0337981278 
3.0365029899 3.2761839339 3.2707953121 3.12199363 3.2741638085 3.1158939486 3.2768333061 3.0734837907 3.2633251447 
3.104627691 3.1010996428 3.2751006023 3.0960026022 3.0748220317 3.0744599153 3.1106822332 3.275239328 3.2771227011 
3.0767943721 3.0688074307 3.0743813291 3.0948721677 3.0235008374 3.0337829512 3.0034217217 3.010519599 2.9896825303 
2.9977955601 3.0116168037 3.0455198626 3.0681732764 3.0454339336 3.0987942657 3.0669983392 3.0854690397 3.1016438624 
3.1135212994 3.1256824109 3.1385800546 3.1484947602 3.1565335821 3.1632328316 3.1588762076 3.1518278169 3.1442413236 
3.1377183342 3.1311762176 3.1255778326 3.119563586 3.1140320818 3.1088900516 3.0927910089 3.0892569892 3.084200542 
3.076898085 3.0668498495 3.0569929325 3.0486478987 3.0412885474 3.0305402802 3.1045189016 3.129350596 3.145709925 
3.1592422586 3.1692123627 3.1812534966 3.1937338258 3.2039405324 3.2177673548 3.2313794269 3.2444465307 3.2548840117 
3.2612619502 3.2699843554 3.2753243839 3.277379329 3.2783769957 3.2951747091 3.0721647319 3.072822409 3.0720226231 
3.0687648702 3.0633367122 3.0547346763 3.0468256491 3.0393162938 3.0332132038 3.0357901293 3.2790756387 3.2731253427 
3.1230151151 3.2766416446 3.1168048975 3.2799273403 3.0706417809 3.2654088195 3.1053523704 3.1017460526 3.2777821065 
3.0967952205 3.0729950102 3.0726366152 3.1114183866 3.2779775289 3.2799324749 3.0777132241 3.0666216797 3.0722499069 
3.0955783984 3.0236426194 3.03377642 3.0034190508 3.0102474995 2.9899482965 2.9986353726 3.0124171148 3.0461569343 
3.0689864343 3.0445347315 3.0994843382 3.0660765891 3.0845254393 3.100812166 3.1126771515 3.1249387886 3.1377981105 
3.1482758385 3.1568245876 3.1635125538 3.1596544363 3.1529821626 3.1454143387 3.1388547589 3.1322403807 3.1265534035 
3.1206598425 3.1148377965 3.1096482656 3.0934382016 3.0898636828 3.0847483521 3.0773761537 3.0672811252 3.0573990702 
3.0489815926 3.0416527197 3.0306918844 3.1058026032 3.1307541164 3.1471723669 3.1609198666 3.1708840395 3.1830404036 
3.1956045474 3.2059042917 3.2201057768 3.2335801182 3.2466655117 3.257151825 3.2634671477 3.2720830622 3.2776224032 
3.2797858633 3.2807676341 3.3025357279 3.0730190004 3.0727948923 3.0710643562 3.0676264375 3.0618761277 3.0532776455 
3.0454627014 3.0379226428 3.0321298538 3.0345423892 3.2815648856 3.2753383739 3.1240864521 3.2789362417 3.1177439547 
3.2825549093 3.0704817487 3.2675239178 3.1059850532 3.1023762238 3.2801655813 3.0975071935 3.0723673791 3.0723146669 
3.1122109744 3.2803630536 3.282281327 3.0740359788 3.0700259026 3.0728257711 3.0962232456 3.0231807056 3.0337911532 
3.0035786471 3.010211079 2.9903426411 2.9997213804 3.0133907538 3.0469585817 3.0699832231 3.0435417599 3.100159001 
3.065159041 3.0836858769 3.0994859143 3.1112692909 3.1238384988 3.1366537556 3.1481248994 3.156881282 3.1636978344 
3.160495465 3.1542298996 3.1467634056 3.140039084 3.133308206 3.1274962747 3.1216427103 3.1157279567 3.1104412468 
3.094048658 3.0904272421 3.0852347715 3.0778015237 3.0676424543 3.0577198905 3.0492360442 3.0419144386 3.0308840231 
3.1073116641 3.1323894187 3.148816969 3.1628011228 3.1727512207 3.185032464 3.1977162672 3.208039978 3.2225873462 
3.2358719691 3.2489423102 3.2593611601 3.2656842047 3.274179569 3.2798621718 3.282121717 3.2831156738 3.2769971551 
3.0717246632 3.0710812012 3.0685504937 3.0647169319 3.0586336533 3.0507471896 3.0432256141 3.03572998 3.0303422049 
3.0326179228 3.2840095518 3.2775060225 3.1251137913 3.2812131678 3.1186833171 3.2850859028 3.0713594178 3.2696790665 
3.1066967618 3.1030440551 3.2825209761 3.0981757273 3.0698823376 3.0703503836 3.1130486793 3.2826889637 3.2851096171 
3.0725764131 3.0711915023 3.0716095478 3.0968935435 3.0229957595 3.0337467408 3.0040367944 3.0108269393 2.9908539905 
3.0011191367 3.0145436522 3.0480186092 3.0711230417 3.0426410403 3.1009086554 3.0642273979 3.0827843913 3.0982919733 
3.110007208 3.122713794 3.1354784283 3.1477963868 3.157242309 3.1641213481 3.1619523416 3.1560520808 3.1484634959 
3.1413754585 3.1344302339 3.1283586932 3.1226078189 3.11647806 3.111259197 3.0947000912 3.0910233527 3.0857618973 
3.0782464048 3.0679867902 3.0579617397 3.0494197353 3.0420125065 3.0308753504 3.1087508141 3.1340987798 3.1504407148 
3.1645826714 3.1745904023 3.1868298839 3.1997658556 3.2101102594 3.2248109261 3.2380257182 3.2509898678 3.2615201819 
3.2679411225 3.276349956 3.2823204652 3.285022056 3.2861397676 3.1042878013 3.0646912253 3.0658178302 3.0651777239 
3.0620059907 3.0565350472 3.0491603002 3.0418018741 3.0346975568 3.0294666343 3.0316713138 3.2870503077 3.2797072411 
3.1260944355 3.283753066 3.119608906 3.2847863716 3.0657459034 3.2719000899 3.1075005964 3.1038629511 3.2851640601 
3.0988845884 3.0664701989 3.0661208652 3.1138749714 3.2855240843 3.2886153291 3.0663986296 3.0639614985 3.0652151709 
3.0975567361 3.0239081411 3.0322964537 3.0036244304 3.0111935969 2.9906523655 3.0022220185 3.0154856348 3.047976781 
3.0718006898 3.0412121305 3.1016298552 3.0626540554 3.081178627 3.0971203018 3.1089997253 3.1217053307 3.1337498737 
3.1477380471 3.1564820715 3.1649436671 3.1637319089 3.1581465953 3.1505122263 3.1428778671 3.13563908 3.1293400274 
3.1235628139 3.1180335265 3.1123282787 3.0953471979 3.0915106257 3.0862668328 3.0785789906 3.0681612825 3.0579428971 
3.049376453 3.0418418033 3.0299847367 3.1097120024 3.1354223509 3.1516869206 3.1658217273 3.1759535572 3.1885657063 
3.2015446494 3.2119490979 3.2266434821 3.2401931071 3.2536045768 3.2638018949 3.270581365 3.2793394386 3.286280655 
3.288578507 3.2888990027 3.0534250824 3.0669976683 3.0674511773 3.0677076085 3.0641400324 3.0591962917 3.0514256545 
3.0439005997 3.0367604079 3.0314923705 3.033398735 3.2894832398 3.2829910808 3.127162111 3.2876325458 3.1204877971 
3.2743691705 3.0624649156 3.2745359619 3.1086334152 3.1047758746 3.2887991903 3.099534878 3.0687605099 3.0678945399 
3.1150368739 3.2889531873 3.2958018418 3.0538108848 3.0663510278 3.0666839123 3.0980261774 3.0249125566 3.0301698406 
3.0014485251 3.007695705 2.9886908401 3.0018800604 3.015659783 3.0492258885 3.0725982033 3.0393399375 3.1022340845 
3.0617145468 3.0797210947 3.0967655972 3.108037897 3.1209662904 3.1317850878 3.1482583181 3.1570984255 3.1670467874 
3.1682632709 3.1617915424 3.1535512608 3.1445699565 3.1369103415 3.1301701407 3.1238727505 3.1179427329 3.1130805657 
3.0960346434 3.0919274381 3.08667376 3.0789691889 3.068298683 3.0577724524 3.0491002711 3.0412542002 3.0283950613 
3.1112982714 3.136531881 3.1536784853 3.1685577838 3.1785126391 3.1908640847 3.2036962396 3.2146192169 3.2304641716 
3.2443016978 3.2575427761 3.2708938955 3.2753588728 3.2833504634 3.2887717905 3.2893258109 3.2878146011 3.0698858634 
3.0730777751 3.0721734345 3.0721231163 3.06945167 3.0643043029 3.0558815881 3.0484365467 3.0411839053 3.0354928461 
3.0374936947 3.2909832753 3.2867685541 3.127535756 3.289164907 3.1208904512 3.0794814619 3.0725241068 3.2788660222 
3.108785827 3.1052148301 3.2889440849 3.1001167884 3.073192023 3.073288288 3.1157594315 3.2883741986 3.2369214596 
3.0680233716 3.0723332469 3.0724077707 3.0983034615 3.0281615677 3.0318776801 3.0042099116 3.0086064934 2.9906299591 
3.0063265805 3.0199054028 3.0582791114 3.0771240955 3.0423748508 3.1012390909 3.0594340979 3.079149842 3.0963181294 
3.1092791641 3.1224947717 3.1335055612 3.1526959646 3.1714071861 3.174185827 3.1728431417 3.1647224373 3.1539292467 
3.1437625936 3.1360326567 3.1287638533 3.1225191638 3.1161341146 3.1109967025 3.0949969835 3.092409854 3.0871533669 
3.0777827355 3.0684075174 3.0571894748 3.0482846704 3.0395028437 3.0273200569 3.1122250732 3.1385331924 3.1599991999 
3.1745076683 3.1835743163 3.2014033279 3.2107169021 3.2208324999 3.2380690602 3.2508672899 3.2670710159 3.2751880284 