# vtk DataFile Version 4.2
vtk output
ASCII
DATASET POLYDATA
POINTS 6531 float
2493.27 -3055.15 5800 2493.85 -3056.58 5800 2522.85 -3056.39 5800 
2525.61 -3055.15 5800 2488.02 -3042.15 5800 2551.85 -3043.35 5800 
2554.54 -3042.15 5800 2482.76 -3029.15 5800 2580.86 -3030.32 5800 
2583.47 -3029.14 5800 2477.51 -3016.15 5800 2609.86 -3017.29 5800 
2612.4 -3016.14 5800 2472.25 -3003.15 5800 2638.86 -3004.25 5800 
2641.33 -3003.14 5800 2466.99 -2990.15 5800 2667.86 -2991.22 5800 
2670.26 -2990.14 5800 2461.74 -2977.14 5800 2464.86 -2984.86 5800 
2696.86 -2978.18 5800 2699.19 -2977.14 5800 2456.48 -2964.14 5800 
2725.87 -2965.15 5800 2728.12 -2964.13 5800 2451.22 -2951.14 5800 
2754.87 -2952.11 5800 2755.84 -2951.13 5800 2445.97 -2938.14 5800 
2763.33 -2938.13 5800 2440.71 -2925.14 5800 2769.14 -2925.13 5800 
2435.46 -2912.14 5800 2435.86 -2913.14 5800 2774.95 -2912.13 5800 
2430.2 -2899.14 5800 2780.76 -2899.13 5800 2424.94 -2886.14 5800 
2783.87 -2892.16 5800 2786.57 -2886.13 5800 2419.69 -2873.14 5800 
2792.38 -2873.12 5800 2414.43 -2860.14 5800 2798.19 -2860.12 5800 
2409.17 -2847.14 5800 2804 -2847.12 5800 2403.92 -2834.14 5800 
2406.86 -2841.42 5800 2809.81 -2834.12 5800 2398.66 -2821.13 5800 
2812.88 -2827.25 5800 2815.62 -2821.12 5800 2393.41 -2808.13 5800 
2821.43 -2808.12 5800 2388.15 -2795.13 5800 2827.24 -2795.12 5800 
2382.89 -2782.13 5800 2833.05 -2782.12 5800 2368.03 -2769.13 5800 
2377.87 -2777.18 5800 2838.86 -2769.11 5800 2351.29 -2756.13 5800 
2841.89 -2762.34 5800 2844.67 -2756.11 5800 2334.55 -2743.13 5800 
2348.87 -2754.25 5800 2850.48 -2743.11 5800 2317.81 -2730.13 5800 
2319.87 -2731.73 5800 2856.29 -2730.11 5800 2301.07 -2717.13 5800 
2862.1 -2717.11 5800 2284.33 -2704.13 5800 2290.87 -2709.21 5800 
2867.91 -2704.11 5800 2267.58 -2691.13 5800 2870.89 -2697.43 5800 
2873.72 -2691.11 5800 2250.84 -2678.13 5800 2261.87 -2686.69 5800 
2879.53 -2678.11 5800 2234.1 -2665.13 5800 2885.34 -2665.11 5800 
2216.4 -2652.13 5800 2232.87 -2664.17 5800 2891.16 -2652.1 5800 
2197.13 -2639.13 5800 2203.87 -2643.47 5800 2896.43 -2639.1 5800 
2176.94 -2626.13 5800 2899.9 -2630.25 5800 2901.47 -2626.1 5800 
2156.75 -2613.13 5800 2174.87 -2624.79 5800 2906.38 -2613.1 5800 
2136.56 -2600.13 5800 2145.87 -2606.12 5800 2913.27 -2600.1 5800 
2116.38 -2587.13 5800 2116.87 -2587.45 5800 2924.1 -2587.1 5800 
2096.19 -2574.13 5800 2928.9 -2582.63 5800 2938.08 -2574.1 5800 
2076 -2561.13 5800 2087.87 -2568.77 5800 2952.07 -2561.1 5800 
2055.81 -2548.13 5800 2058.87 -2550.1 5800 2957.91 -2555.67 5800 
2966.05 -2548.09 5800 2035.62 -2535.12 5800 2980.03 -2535.09 5800 
2025.78 -2522.12 5800 2029.88 -2531.43 5800 2986.91 -2528.7 5800 
2994.01 -2522.09 5800 2024.79 -2509.12 5800 3007.99 -2509.09 5800 
2025.19 -2496.12 5800 3015.91 -2501.73 5800 3021.98 -2496.09 5800 
2025.59 -2483.12 5800 3035.96 -2483.09 5800 2026 -2470.12 5800 
3044.91 -2474.76 5800 3049.94 -2470.08 5800 2026.4 -2457.12 5800 
3063.92 -2457.08 5800 2026.8 -2444.12 5800 3073.92 -2447.79 5800 
3077.9 -2444.08 5800 2027.2 -2431.12 5800 3091.89 -2431.08 5800 
2027.6 -2418.12 5800 3102.92 -2420.82 5800 3105.87 -2418.08 5800 
2028.01 -2405.11 5800 3119.85 -2405.08 5800 2028.41 -2392.11 5800 
3131.92 -2393.85 5800 3133.83 -2392.08 5800 2028.81 -2379.11 5800 
3147.82 -2379.07 5800 2029.21 -2366.11 5800 3160.93 -2366.88 5800 
3161.8 -2366.07 5800 2029.61 -2353.11 5800 3175.78 -2353.07 5800 
2029.89 -2344.22 5800 2030.02 -2340.11 5800 3189.76 -2340.07 5800 
2030.42 -2327.11 5800 3189.93 -2339.89 5800 3196.75 -2327.07 5800 
2030.82 -2314.11 5800 3198.38 -2314.07 5800 2031.22 -2301.11 5800 
3200.01 -2301.07 5800 2031.63 -2288.11 5800 3201.64 -2288.07 5800 
2032.03 -2275.1 5800 3203.27 -2275.06 5800 2032.43 -2262.1 5800 
3204.9 -2262.06 5800 2032.83 -2249.1 5800 3206.53 -2249.06 5800 
2033.23 -2236.1 5800 3208.16 -2236.06 5800 2033.64 -2223.1 5800 
3209.79 -2223.06 5800 2034.04 -2210.1 5800 3211.42 -2210.06 5800 
2034.44 -2197.1 5800 3213.05 -2197.06 5800 2034.84 -2184.1 5800 
3214.68 -2184.06 5800 2035.24 -2171.1 5800 3216.31 -2171.06 5800 
2035.65 -2158.1 5800 3217.94 -2158.05 5800 2036.05 -2145.09 5800 
3218.95 -2150.06 5800 3219.57 -2145.05 5800 2036.45 -2132.09 5800 
3221.2 -2132.05 5800 2036.85 -2119.09 5800 3222.83 -2119.05 5800 
2037.4 -2106.09 5800 3224.46 -2106.05 5800 2037.96 -2093.09 5800 
3226.09 -2093.05 5800 2038.5 -2080.09 5800 3227.72 -2080.05 5800 
2039.06 -2067.09 5800 3229.35 -2067.05 5800 2037.79 -2054.09 5800 
3230.98 -2054.05 5800 2035.21 -2041.09 5800 3232.61 -2041.05 5800 
2032.57 -2028.09 5800 3234.25 -2028.04 5800 2029.87 -2015.08 5800 
2029.92 -2015.32 5800 3235.88 -2015.04 5800 2027.22 -2002.08 5800 
3237.51 -2002.04 5800 2024.58 -1989.08 5800 3239.12 -1989.04 5800 
2021.94 -1976.08 5800 3240.64 -1976.04 5800 2019.29 -1963.08 5800 
3242 -1963.04 5800 2016.65 -1950.08 5800 3243.21 -1950.04 5800 
2014.07 -1937.08 5800 3244.43 -1937.04 5800 2011.53 -1924.08 5800 
3245.64 -1924.04 5800 2008.94 -1911.08 5800 3246.85 -1911.04 5800 
2006.28 -1898.08 5800 3247.97 -1899.05 5800 3248.06 -1898.03 5800 
2003.57 -1885.08 5800 3249.27 -1885.03 5800 2000.79 -1872.07 5800 
2000.93 -1872.72 5800 3250.48 -1872.03 5800 1998.15 -1859.07 5800 
3251.7 -1859.03 5800 1995.51 -1846.07 5800 3252.91 -1846.03 5800 
1992.86 -1833.07 5800 3254.12 -1833.03 5800 1990.4 -1820.07 5800 
3255.33 -1820.03 5800 1987.91 -1807.07 5800 3256.54 -1807.03 5800 
1985.36 -1794.07 5800 3257.76 -1794.03 5800 1982.75 -1781.07 5800 
3258.97 -1781.02 5800 1980.09 -1768.07 5800 3260.3 -1768.02 5800 
1977.36 -1755.07 5800 3261.31 -1755.02 5800 1974.56 -1742.07 5800 
3262.3 -1742.02 5800 1974.83 -1729.06 5800 3263.25 -1729.02 5800 
1979.37 -1716.06 5800 3264.18 -1716.02 5800 1982.14 -1703.06 5800 
3265.08 -1703.02 5800 1985.55 -1690.06 5800 3265.96 -1690.02 5800 
1989.5 -1677.06 5800 3266.81 -1677.02 5800 1993.43 -1664.06 5800 
3267.63 -1664.02 5800 1997.34 -1651.06 5800 3268.44 -1651.01 5800 
2000.94 -1639.02 5800 2001.24 -1638.06 5800 3269.22 -1638.01 5800 
2005.21 -1625.06 5800 3269.84 -1625.01 5800 2009.18 -1612.05 5800 
3272.04 -1612.01 5800 2013.15 -1599.05 5800 3270.66 -1599.01 5800 
2017.12 -1586.05 5800 3270.59 -1586.01 5800 2021.09 -1573.05 5800 
3271.03 -1573.01 5800 2025.06 -1560.05 5800 3271.98 -1560.01 5800 
2029.03 -1547.05 5800 3272.48 -1547.01 5800 2029.95 -1544.04 5800 
2033 -1534.05 5800 3272.98 -1534.01 5800 2036.45 -1521.05 5800 
3273.49 -1521 5800 2037.89 -1508.05 5800 3273.99 -1508 5800 
2039.34 -1495.04 5800 3274.5 -1495 5800 2040.78 -1482.04 5800 
3275 -1482 5800 2042.23 -1469.04 5800 3275.5 -1469 5800 
2043.67 -1456.04 5800 3276.01 -1456 5800 2045.38 -1443.04 5800 
3276.51 -1443 5800 2047.04 -1430.04 5800 3277 -1430.27 5800 
3277.01 -1430 5800 2048.63 -1417.04 5800 3277.52 -1417 5800 
2050.36 -1404.04 5800 3278.02 -1403.99 5800 2052.27 -1391.04 5800 
3278.52 -1390.99 5800 2054.17 -1378.04 5800 3279.03 -1377.99 5800 
2056.08 -1365.03 5800 3279.53 -1364.99 5800 2057.7 -1352.03 5800 
3280.04 -1351.99 5800 2058.97 -1340.83 5800 2059.13 -1339.03 5800 
3280.54 -1338.99 5800 2060.16 -1326.03 5800 3281.04 -1325.99 5800 
2061.04 -1313.03 5800 3281.55 -1312.99 5800 2061.8 -1300.03 5800 
3282.05 -1299.99 5800 2062.46 -1287.03 5800 3282.55 -1286.99 5800 
2063.04 -1274.03 5800 3283.06 -1273.98 5800 2063.56 -1261.03 5800 
3283.56 -1260.98 5800 2063.04 -1248.02 5800 3284.07 -1247.98 5800 
2062.14 -1235.02 5800 3284.57 -1234.98 5800 2061.24 -1222.02 5800 
3285.07 -1221.98 5800 2060.33 -1209.02 5800 3285.59 -1208.98 5800 
2059.43 -1196.02 5800 3286.13 -1195.98 5800 2058.43 -1183.02 5800 
2058.98 -1189.51 5800 3286.68 -1182.98 5800 2057.44 -1170.02 5800 
3287.23 -1169.98 5800 2056.57 -1157.02 5800 3287.78 -1156.98 5800 
2055.8 -1144.02 5800 3288.36 -1143.97 5800 2054.92 -1131.02 5800 
3288.99 -1130.97 5800 2054.02 -1118.02 5800 3289.9 -1117.97 5800 
2052.92 -1105.01 5800 3291.02 -1104.97 5800 2049.82 -1092.01 5800 
3292.19 -1091.97 5800 2048.57 -1079.01 5800 3293.34 -1078.97 5800 
2048 -1066.01 5800 3294.46 -1065.97 5800 2048.59 -1053.01 5800 
3295.56 -1052.97 5800 2050.8 -1040.01 5800 3296.64 -1039.97 5800 
2053.02 -1027.01 5800 3297.84 -1026.97 5800 2055.23 -1014.01 5800 
3299.1 -1013.96 5800 2057.44 -1001.01 5800 3300.36 -1000.96 5800 
2058.99 -991.872 5800 2059.65 -988.005 5800 3301.32 -987.962 5800 
2061.86 -975.004 5800 2566.92 -974.987 5800 2581.01 -979.142 5800 
2592 -974.986 5800 3299.26 -974.961 5800 2064.08 -962.003 5800 
2541.88 -961.986 5800 2552.01 -970.403 5800 2610.02 -967.82 5800 
2639.02 -964.744 5800 2668.02 -964.619 5800 2697.02 -965.131 5800 
2726.02 -965.762 5800 2750.65 -961.979 5800 3297.67 -961.96 5800 
2066.29 -949.002 5800 2526.22 -948.986 5800 2755.02 -961.101 5800 
2761.94 -948.978 5800 3296.14 -948.959 5800 2068.5 -936.001 5800 
2509.36 -935.985 5800 2523.01 -946.562 5800 2769.36 -935.977 5800 
3293.96 -935.958 5800 2070.71 -923 5800 2492.31 -922.985 5800 
2494.01 -924.074 5800 2776.78 -922.975 5800 3291.77 -922.957 5800 
2072.93 -909.999 5800 2475.6 -909.985 5800 2784.03 -910.283 5800 
2784.21 -909.974 5800 3289.59 -909.957 5800 2075.14 -896.997 5800 
2459.74 -896.984 5800 2465.02 -900.396 5800 2791.68 -896.973 5800 
3287.41 -896.956 5800 2077.35 -883.996 5800 2441.45 -883.984 5800 
2799.04 -883.971 5800 3285.23 -883.955 5800 2079.56 -870.995 5800 
2428.25 -870.983 5800 2436.02 -878.864 5800 2806.46 -870.97 5800 
3283.04 -870.954 5800 2081.77 -857.994 5800 2417.04 -857.983 5800 
2813.03 -859.464 5800 2813.93 -857.969 5800 3280.86 -857.953 5800 
2083.96 -844.993 5800 2407.86 -844.982 5800 2821.55 -844.968 5800 
3278.68 -844.952 5800 2086.17 -831.992 5800 2399.54 -831.981 5800 
2407.02 -843.768 5800 2828.88 -831.966 5800 3277.05 -835.238 5800 
3276.5 -831.951 5800 2088.01 -820.676 5800 2088.28 -818.991 5800 
2391.29 -818.981 5800 2841.51 -818.965 5800 3274 -818.95 5800 
2090.34 -805.99 5800 2382.91 -805.98 5800 2842.03 -818.479 5800 
2856.57 -805.964 5800 3270.73 -805.949 5800 2092.42 -792.989 5800 
[...]
POINT_DATA 6531
SCALARS Pressure double
LOOKUP_TABLE default
3.0932710339 3.0932710339 3.0932710339 3.0932710339 3.0932710339 3.0932710339 3.0932710339 3.0932710339 3.0932710339 
3.0932710339 3.0932710339 3.0932710339 3.0932710339 3.0932710339 3.0932710339 3.0932710339 3.0932710339 3.0932710339 
3.0932710339 3.0932710339 3.0932710339 3.0932710339 3.0932710339 3.0932710339 3.0932710339 3.0932710339 3.0932710339 
3.0932710339 3.0932710339 3.0932710339 3.0932710339 3.0932710339 3.0932710339 3.0932710339 3.0932710339 3.0932710339 
3.0932710339 3.0932710339 3.0932710339 3.0932710339 3.0932710339 3.0932710339 3.0932710339 3.0932710339 3.0932710339 
3.0932710339 3.0932710339 3.0932710339 3.0932710339 3.0932710339 3.0932710339 3.0932710339 3.0932710339 3.0932710339 
3.0932710339 3.0932710339 3.0932710339 3.0932710339 3.0932710339 3.0932710339 3.0932710339 3.0932710339 3.0932710339 
3.0932710339 3.0932710339 3.0932710339 3.0932710339 3.0932710339 3.0932710339 3.0932710339 3.0932710339 3.0932710339 
3.0932710339 3.0932710339 3.0932710339 3.0932710339 3.0932710339 3.0932710339 3.0932710339 3.0932710339 3.0932710339 
3.0932710339 3.0932710339 3.0932710339 3.0932710339 3.0932710339 3.0932710339 3.0932710339 3.0932710339 3.0932710339 
3.0932710339 3.0932710339 3.0932710339 3.0932710339 3.0932710339 3.0932710339 3.0932710339 3.0932710339 3.0932710339 
3.0932710339 3.0932710339 3.0932710339 3.0932710339 3.0932710339 3.0932710339 3.0932710339 3.0932710339 3.0932710339 
3.0932710339 3.0932710339 3.0932710339 3.0932710339 3.0932710339 3.0932710339 3.0932710339 3.0932710339 3.0932710339 
3.0932710339 3.0932710339 3.0932710339 3.0932710339 3.0932710339 3.0932710339 3.0932710339 3.0932710339 3.0932710339 
3.0932710339 3.0932710339 3.0932710339 3.0932710339 3.0932710339 3.0932710339 3.0932710339 3.0932710339 3.0932710339 
3.0932710339 3.0932710339 3.0932710339 3.0932710339 3.0932710339 3.0932710339 3.0932710339 3.0932710339 3.0932710339 
3.0932710339 3.0932710339 3.0932710339 3.0932710339 3.0932710339 3.0932710339 3.0932710339 3.0932710339 3.0932710339 
3.0932710339 3.0932710339 3.0932710339 3.0932710339 3.0932710339 3.0932710339 3.0932710339 3.0932710339 3.0932710339 
3.0932710339 3.0932710339 3.0932710339 3.0932710339 3.0932710339 3.0932710339 3.0932710339 3.0932710339 3.0932710339 
3.0932710339 3.0932710339 3.0932710339 3.0932710339 3.0932710339 3.0932710339 3.0932710339 3.0932710339 3.0932710339 
3.0932710339 3.0932710339 3.0932710339 3.0932710339 3.0932710339 3.0932710339 3.0932710339 3.0932710339 3.0932710339 
3.0932710339 3.0932710339 3.0932710339 3.0932710339 3.0932710339 3.0932710339 3.0932710339 3.0932710339 3.0932710339 
3.0932710339 3.0932710339 3.0932710339 3.0932710339 3.0932710339 3.0932710339 3.0932710339 3.0932710339 3.0932710339 
3.0932710339 3.0932710339 3.0932710339 3.0932710339 3.0932710339 3.0932710339 3.0932710339 3.0932710339 3.0932710339 
3.0932710339 3.0932710339 3.0932710339 3.0932710339 3.0932710339 3.0932710339 3.0932710339 3.0932710339 3.0932710339 
3.0932710339 3.0932710339 3.0932710339 3.0932710339 3.0932710339 3.0932710339 3.0932710339 3.0932710339 3.0932710339 
3.0932710339 3.0932710339 3.0932710339 3.0932710339 3.0932710339 3.0932710339 3.0932710339 3.0932710339 3.0932710339 
3.0932710339 3.0932710339 3.0932710339 3.0932710339 3.0932710339 3.0932710339 3.0932710339 3.0932710339 3.0932710339 
3.0932710339 3.0932710339 3.0932710339 3.0932710339 3.0932710339 3.0932710339 3.0932710339 3.0932710339 3.0932710339 
3.0932710339 3.0932710339 3.0932710339 3.0932710339 3.0932710339 3.0932710339 3.0932710339 3.0932710339 3.0932710339 
3.0932710339 3.0932710339 3.0932710339 3.0932710339 3.0932710339 3.0932710339 3.0932710339 3.0932710339 3.0932710339 
3.0932710339 3.0932710339 3.0932710339 3.0932710339 3.0932710339 3.0932710339 3.0932710339 3.0932710339 3.0932710339 
3.0932710339 3.0932710339 3.0932710339 3.0932710339 3.0932710339 3.0932710339 3.0932710339 3.0932710339 3.0932710339 
3.0932710339 3.0932710339 3.0932710339 3.0932710339 3.0932710339 3.0932710339 3.0932710339 3.0932710339 3.0932710339 
3.0932710339 3.0932710339 3.0932710339 3.0932710339 3.0932710339 3.0932710339 3.0932710339 3.0932710339 3.0932710339 
3.0932710339 3.0932710339 3.0932710339 3.0932710339 3.0932710339 3.0932710339 3.0932710339 3.0932710339 3.0932710339 
3.0932710339 3.0932710339 3.0932710339 3.0932710339 3.0932710339 3.0932710339 3.0932710339 3.0932710339 3.0932710339 
3.0932710339 3.0932710339 3.0932710339 3.0932710339 3.0932710339 3.0932710339 3.0932710339 3.0932710339 3.0932710339 
3.0932710339 3.0932710339 3.0932710339 3.0932710339 3.0932710339 3.0932710339 3.0932710339 3.0932710339 3.0932710339 
3.0932710339 3.0932710339 3.0932710339 3.0932710339 3.0932710339 3.0932710339 3.0932710339 3.0932710339 3.0932710339 
3.0932710339 3.0932710339 3.0932710339 3.0932710339 3.0932710339 3.0932710339 3.0932710339 3.0932710339 3.0932710339 
3.0932710339 3.0932710339 3.0932710339 3.0932710339 3.1078652246 3.1078652246 3.1078652246 3.0932710339 3.0932710339 
3.1078652246 3.1078652246 3.1078652246 3.1078652246 3.1078652246 3.1078652246 3.1078652246 3.1078652246 3.0932710339 
3.0932710339 3.1078652246 3.1078652246 3.1078652246 3.0932710339 3.0932710339 3.1078652246 3.1078652246 3.1078652246 
3.0932710339 3.0932710339 3.1078652246 3.1078652246 3.1078652246 3.0932710339 3.0932710339 3.1078652246 3.1078652246 
3.1078652246 3.0932710339 3.0932710339 3.1078652246 3.1078652246 3.1078652246 3.0932710339 3.0932710339 3.1078652246 
3.1078652246 3.0932710339 3.0932710339 3.1078652246 3.1078652246 3.1078652246 3.0932710339 3.0932710339 3.1078652246 
3.1078652246 3.1078652246 3.0932710339 3.0932710339 3.1078652246 3.1078652246 3.0932710339 3.0932710339 3.1078652246 
3.1078652246 3.1078652246 3.0932710339 3.0932710339 3.0932710339 3.0932710339 3.1078652246 3.1078652246 3.0932710339 
3.0932710339 3.1078652246 3.1078652246 3.1078652246 3.0932710339 3.0932710339 3.1078652246 3.1078652246 3.1078652246 
3.1078652246 3.0932710339 3.0932710339 3.1078652246 3.1078652246 3.0932710339 3.0932710339 3.1078652246 3.1078652246 
3.0932710339 3.0932710339 3.1078652246 3.1078652246 3.0932710339 3.0932710339 3.1078652246 3.1078652246 3.1078652246 
3.1078652246 3.0932710339 3.0932710339 3.1078652246 3.1078652246 3.0932710339 3.0932710339 3.1078652246 3.1078652246 
3.0932710339 3.0932710339 3.1078652246 3.1078652246 3.1078652246 3.0932710339 3.0932710339 3.1078652246 3.1078652246 
3.0932710339 3.0932710339 3.1078652246 3.1078652246 3.1078652246 3.0932710339 3.0932710339 3.1078652246 3.1078652246 
3.0932710339 3.0932710339 3.1078652246 3.1078652246 3.0932710339 3.0932710339 3.1078652246 3.1078652246 3.0932710339 
3.0932710339 3.1078652246 3.1224594153 3.1224594153 3.1224594153 3.1078652246 3.0932710339 3.0932710339 3.1078652246 
3.1224594153 3.1224594153 3.1224594153 3.1224594153 3.1078652246 3.1078652246 3.0932710339 3.0932710339 3.1078652246 
3.1224594153 3.1224594153 3.1224594153 3.1224594153 3.1078652246 3.0932710339 3.0932710339 3.0932710339 3.1078652246 
3.1078652246 3.1224594153 3.1224594153 3.1224594153 3.1224594153 3.1078652246 3.0932710339 3.0932710339 3.1078652246 
3.1224594153 3.1224594153 3.1224594153 3.1078652246 3.0932710339 3.0932710339 3.1078652246 3.1224594153 3.1224594153 
3.1224594153 3.1224594153 3.1078652246 3.0932710339 3.0932710339 3.1078652246 3.1224594153 3.1224594153 3.1078652246 
3.1078652246 3.0932710339 3.0932710339 3.0932710339 3.1078652246 3.1224594153 3.1224594153 3.1224594153 3.1078652246 
3.0932710339 3.0932710339 3.0932710339 3.1078652246 3.1078652246 3.1224594153 3.1224594153 3.1224594153 3.1078652246 
3.0932710339 3.0786768432 3.0786768432 3.0786768432 3.0786768432 3.0786768432 3.0786768432 3.0786768432 3.0786768432 
3.0932710339 3.1078652246 3.1224594153 3.1224594153 3.1224594153 3.1078652246 3.0932710339 3.0786768432 3.0786768432 
3.0786768432 3.0786768432 3.0786768432 3.0786768432 3.0786768432 3.0786768432 3.0786768432 3.0786768432 3.0786768432 
3.0932710339 3.1078652246 3.1224594153 3.1224594153 3.1078652246 3.1078652246 3.0932710339 3.0786768432 3.0786768432 
3.0786768432 3.0786768432 3.0786768432 3.0932710339 3.1078652246 3.1224594153 3.1224594153 3.1078652246 3.0932710339 
3.0786768432 3.0786768432 3.0786768432 3.0786768432 3.0786768432 3.0786768432 3.0786768432 3.0932710339 3.1078652246 
3.1224594153 3.1224594153 3.1224594153 3.1224594153 3.1078652246 3.0932710339 3.0786768432 3.0786768432 3.0786768432 
3.0786768432 3.0786768432 3.0932710339 3.1078652246 3.1224594153 3.1224594153 3.1078652246 3.0932710339 3.0786768432 
3.0786768432 3.0786768432 3.0786768432 3.0786768432 3.0786768432 3.0932710339 3.1078652246 3.1224594153 3.1224594153 
3.1078652246 3.0932710339 3.0786768432 3.0786768432 3.0786768432 3.0786768432 3.0786768432 3.0786768432 3.0932710339 
3.1078652246 3.1224594153 3.1224594153 3.1224594153 3.1224594153 3.1078652246 3.1078652246 3.0932710339 3.0786768432 
3.0786768432 3.0786768432 3.0786768432 3.0786768432 3.0932710339 3.1078652246 3.1224594153 3.137053606 3.137053606 
3.137053606 3.137053606 3.1224594153 3.1078652246 3.0932710339 3.0786768432 3.0786768432 3.0786768432 3.0786768432 
3.0786768432 3.0786768432 3.0932710339 3.1078652246 3.1224594153 3.137053606 3.137053606 3.137053606 3.137053606 
3.137053606 3.1224594153 3.1078652246 3.0932710339 3.0786768432 3.0786768432 3.0786768432 3.0786768432 3.0786768432 
3.0932710339 3.1078652246 3.1224594153 3.137053606 3.137053606 3.137053606 3.1224594153 3.1078652246 3.0932710339 
3.0932710339 3.0786768432 3.0786768432 3.0786768432 3.0786768432 3.0786768432 3.0786768432 3.0786768432 3.0932710339 
3.0932710339 3.1078652246 3.1224594153 3.137053606 3.137053606 3.137053606 3.1224594153 3.1224594153 3.1078652246 
3.0932710339 3.0786768432 3.0786768432 3.0786768432 3.0786768432 3.0786768432 3.0932710339 3.1078652246 3.1078652246 
3.1224594153 3.1224594153 3.137053606 3.137053606 3.137053606 3.1224594153 3.1078652246 3.0932710339 3.0786768432 
3.0786768432 3.0786768432 3.0786768432 3.0786768432 3.0786768432 3.0932710339 3.1078652246 3.1224594153 3.137053606 
3.137053606 3.1224594153 3.1078652246 3.0932710339 3.0786768432 3.0786768432 3.0786768432 3.0786768432 3.0786768432 
3.0932710339 3.1078652246 3.1224594153 3.137053606 3.137053606 3.137053606 3.137053606 3.1224594153 3.1224594153 
3.1078652246 3.1078652246 3.0932710339 3.0786768432 3.0786768432 3.0786768432 3.0786768432 3.0932710339 3.1078652246 
3.1224594153 3.137053606 3.137053606 3.1224594153 3.1078652246 3.0932710339 3.0786768432 3.0786768432 3.0786768432 
3.0786768432 3.0786768432 3.0786768432 3.0932710339 3.1078652246 3.1224594153 3.137053606 3.137053606 3.1224594153 
3.1078652246 3.0932710339 3.0786768432 3.0786768432 3.0786768432 3.0786768432 3.0786768432 3.0932710339 3.1078652246 
3.1224594153 3.1224594153 3.137053606 3.137053606 3.137053606 3.137053606 3.1224594153 3.1078652246 3.0932710339 
3.0786768432 3.0786768432 3.0786768432 3.0786768432 3.0932710339 3.1078652246 3.1224594153 3.137053606 3.137053606 
3.1224594153 3.1078652246 3.0932710339 3.0786768432 3.0786768432 3.0786768432 3.0786768432 3.0786768432 3.0932710339 
3.1078652246 3.1224594153 3.137053606 3.1516477967 3.1516477967 3.1516477967 3.1516477967 3.137053606 3.1224594153 
3.1078652246 3.0932710339 3.0786768432 3.0786768432 3.0786768432 3.0786768432 3.0786768432 3.0932710339 3.1078652246 
3.1224594153 3.137053606 3.137053606 3.1516477967 3.1516477967 3.1516477967 3.1516477967 3.137053606 3.1224594153 
3.1224594153 3.1078652246 3.0932710339 3.0786768432 3.0786768432 3.0786768432 3.0786768432 3.0786768432 3.0932710339 
3.1078652246 3.1224594153 3.137053606 3.1516477967 3.1516477967 3.1516477967 3.137053606 3.137053606 3.1224594153 
3.1078652246 3.0932710339 3.0786768432 3.0786768432 3.0786768432 3.0640826525 3.0640826525 3.0640826525 3.0786768432 
3.0932710339 3.1078652246 3.1224594153 3.1224594153 3.137053606 3.1516477967 3.1516477967 3.1516477967 3.1516477967 
3.137053606 3.1224594153 3.1078652246 3.0932710339 3.0786768432 3.0786768432 3.0786768432 3.0640826525 3.0640826525 
3.0640826525 3.0640826525 3.0640826525 3.0640826525 3.0640826525 3.0786768432 3.0932710339 3.1078652246 3.1078652246 
3.1224594153 3.137053606 3.137053606 3.1516477967 3.1516477967 3.1516477967 3.137053606 3.1224594153 3.1078652246 
3.0932710339 3.0932710339 3.0786768432 3.0786768432 3.0786768432 3.0786768432 3.0640826525 3.0640826525 3.0640826525 
3.0640826525 3.0786768432 3.0932710339 3.1078652246 3.1224594153 3.137053606 3.1516477967 3.1516477967 3.137053606 
3.1224594153 3.1078652246 3.0932710339 3.0786768432 3.0786768432 3.0786768432 3.0786768432 3.0640826525 3.0640826525 
3.0786768432 3.0932710339 3.1078652246 3.1224594153 3.137053606 3.137053606 3.1516477967 3.1516477967 3.1516477967 
3.137053606 3.1224594153 3.1078652246 3.0932710339 3.0786768432 3.0786768432 3.0786768432 3.0786768432 3.0640826525 
3.0640826525 3.0640826525 3.0786768432 3.0932710339 3.1078652246 3.1224594153 3.137053606 3.1516477967 3.1516477967 
3.1516477967 3.137053606 3.137053606 3.1224594153 3.1078652246 3.0932710339 3.0786768432 3.0786768432 3.0786768432 
3.0640826525 3.0640826525 3.0640826525 3.0786768432 3.0932710339 3.1078652246 3.1224594153 3.1224594153 3.137053606 
3.1516477967 3.1516477967 3.1516477967 3.137053606 3.1224594153 3.1078652246 3.0932710339 3.0786768432 3.0786768432 
3.0786768432 3.0786768432 3.0640826525 3.0640826525 3.0786768432 3.0786768432 3.0932710339 3.1078652246 3.1224594153 
3.137053606 3.1516477967 3.1516477967 3.137053606 3.1224594153 3.1078652246 3.0932710339 3.0786768432 3.0786768432 
3.0786768432 3.0786768432 3.0640826525 3.0640826525 3.0786768432 3.0932710339 3.1078652246 3.1224594153 3.137053606 
3.137053606 3.1516477967 3.1516477967 3.1516477967 3.137053606 3.1224594153 3.1078652246 3.0932710339 3.0786768432 
3.0786768432 3.0786768432 3.0786768432 3.0786768432 3.0786768432 3.0786768432 3.0786768432 3.0640826525 3.0494884618 
3.0494884618 3.0494884618 3.0494884618 3.0494884618 3.0640826525 3.0640826525 3.0786768432 3.0932710339 3.1078652246 
3.1224594153 3.137053606 3.1516477967 3.1662419875 3.1662419875 3.1662419875 3.1662419875 3.1516477967 3.137053606 
3.1224594153 3.1078652246 3.0932710339 3.0786768432 3.0786768432 3.0786768432 3.0786768432 3.0786768432 3.0640826525 
3.0640826525 3.0494884618 3.0494884618 3.0494884618 3.0494884618 3.0640826525 3.0786768432 3.0932710339 3.1078652246 
3.1224594153 3.1224594153 3.137053606 3.1516477967 3.1662419875 3.1662419875 3.1662419875 3.1662419875 3.1662419875 
3.1516477967 3.137053606 3.1224594153 3.1078652246 3.0932710339 3.0786768432 3.0640826525 3.0640826525 3.0640826525 
3.0786768432 3.0786768432 3.0786768432 3.0640826525 3.0494884618 3.0494884618 3.0640826525 3.0786768432 3.0932710339 
3.1078652246 3.1078652246 3.1224594153 3.137053606 3.1516477967 3.1516477967 3.1662419875 3.1662419875 3.1662419875 
3.1516477967 3.137053606 3.1224594153 3.1078652246 3.0932710339 3.0786768432 3.0640826525 3.0640826525 3.0640826525 
3.0640826525 3.0786768432 3.0786768432 3.0640826525 3.0494884618 3.0494884618 3.0494884618 3.0640826525 3.0786768432 
3.0932710339 3.0932710339 3.1078652246 3.1224594153 3.137053606 3.137053606 3.1516477967 3.1662419875 3.1662419875 
3.1662419875 3.1516477967 3.137053606 3.137053606 3.1224594153 3.1078652246 3.0932710339 3.0786768432 3.0640826525 
3.0640826525 3.0640826525 3.0640826525 3.0786768432 3.0786768432 3.0786768432 3.0640826525 3.0494884618 3.0348942711 
3.0348942711 3.0348942711 3.0348942711 3.0348942711 3.0494884618 3.0494884618 3.0640826525 3.0786768432 3.0932710339 
3.1078652246 3.1224594153 3.137053606 3.1516477967 2.9473291268 2.9473291268 2.9619233175 2.9619233175 2.9765175082 
2.9765175082 2.991111699 2.991111699 3.0057058897 3.0057058897 3.0203000804 3.0203000804 3.0348942711 3.0348942711 
3.0494884618 3.0494884618 3.0640826525 3.0640826525 3.0786768432 3.0786768432 3.0932710339 3.0932710339 3.1078652246 
3.1078652246 3.1224594153 3.1224594153 3.137053606 3.137053606 3.1516477967 3.1516477967 2.9473291268 2.9619233175 
2.9765175082 2.991111699 3.0057058897 3.0203000804 3.0348942711 3.0494884618 3.0640826525 3.0786768432 3.0932710339 
3.1078652246 3.1224594153 3.137053606 3.1516477967 2.9473291268 2.9619233175 2.9765175082 2.991111699 3.0057058897 
3.0203000804 3.0348942711 3.0494884618 3.0640826525 3.0786768432 3.0932710339 3.1078652246 3.1224594153 3.137053606 
3.1516477967 3.1662419875 2.9473291268 2.9619233175 2.9765175082 2.991111699 3.0057058897 3.0203000804 3.0348942711 
3.0494884618 3.0640826525 3.0786768432 3.0932710339 3.1078652246 3.1224594153 3.137053606 3.1516477967 3.1662419875 
2.9473291268 2.9619233175 2.9765175082 2.991111699 3.0057058897 3.0203000804 3.0348942711 3.0494884618 3.0640826525 
3.0786768432 3.0932710339 3.1078652246 3.1224594153 3.137053606 3.1516477967 3.1662419875 2.9473291268 2.9619233175 
2.9765175082 2.991111699 3.0057058897 3.0203000804 3.0348942711 3.0494884618 3.0640826525 3.0786768432 3.0932710339 
3.1078652246 3.1224594153 3.137053606 3.1516477967 3.1662419875 2.9473291268 2.9619233175 2.9765175082 2.991111699 
3.0057058897 3.0203000804 3.0348942711 3.0494884618 3.0640826525 3.0786768432 3.0932710339 3.1078652246 3.1224594153 
3.137053606 3.1516477967 3.1662419875 2.9473291268 2.9619233175 2.9765175082 2.991111699 3.0057058897 3.0203000804 
3.0348942711 3.0494884618 3.0640826525 3.0786768432 3.0932710339 3.1078652246 3.1224594153 3.137053606 3.1516477967 
3.1662419875 2.9473291268 2.9619233175 2.9765175082 2.991111699 3.0057058897 3.0203000804 3.0348942711 3.0494884618 
3.0640826525 3.0786768432 3.0932710339 3.1078652246 3.1224594153 3.137053606 3.1516477967 3.1662419875 2.9473291268 
2.9619233175 2.9765175082 2.991111699 3.0057058897 3.0203000804 3.0348942711 3.0494884618 3.0640826525 3.0786768432 
3.0932710339 3.1078652246 3.1224594153 3.137053606 3.1516477967 2.9473291268 2.9619233175 2.9765175082 2.991111699 
3.0057058897 3.0203000804 3.0348942711 3.0494884618 3.0640826525 3.0786768432 3.0932710339 3.1078652246 3.1224594153 
3.137053606 3.1516477967 2.9473291268 2.9619233175 2.9765175082 2.991111699 3.0057058897 3.0203000804 3.0348942711 
3.0494884618 3.0640826525 3.0786768432 3.0932710339 3.1078652246 3.1224594153 3.137053606 3.1516477967 2.9473291268 
2.9619233175 2.9765175082 2.991111699 3.0057058897 3.0203000804 3.0348942711 3.0494884618 3.0640826525 3.0786768432 
3.0932710339 3.1078652246 3.1224594153 3.137053606 2.9473291268 2.9619233175 2.9765175082 2.991111699 3.0057058897 
3.0203000804 3.0348942711 3.0494884618 3.0640826525 3.0786768432 3.0932710339 3.1078652246 3.1224594153 3.137053606 
2.9473291268 2.9619233175 2.9765175082 2.991111699 3.0057058897 3.0203000804 3.0348942711 3.0494884618 3.0640826525 
3.0786768432 3.0932710339 3.1078652246 3.1224594153 3.137053606 2.9473291268 2.9619233175 2.9765175082 2.991111699 
3.0057058897 3.0203000804 3.0348942711 3.0494884618 3.0640826525 3.0786768432 3.0932710339 3.1078652246 3.1224594153 
3.1224594153 3.1078652246 3.0932710339 3.0786768432 3.0640826525 3.0640826525 3.0640826525 3.0786768432 3.0786768432 
3.0786768432 3.0640826525 3.0494884618 3.0348942711 3.0348942711 3.0494884618 3.0640826525 3.0786768432 3.0932710339 
3.1078652246 3.1224594153 2.9473291268 2.9473291268 2.9619233175 2.9619233175 2.9765175082 2.9765175082 2.991111699 
2.991111699 3.0057058897 3.0057058897 3.0203000804 3.0203000804 3.0348942711 3.0348942711 3.0494884618 3.0494884618 
3.0640826525 3.0640826525 3.0786768432 3.0786768432 3.0932710339 3.0932710339 3.1078652246 3.1078652246 3.1224594153 
3.1224594153 3.137053606 2.9473291268 2.9619233175 2.9765175082 2.991111699 3.0057058897 3.0203000804 3.0348942711 
3.0494884618 3.0640826525 3.0786768432 3.0932710339 3.1078652246 3.1224594153 3.137053606 2.9473291268 2.9619233175 
2.9765175082 2.991111699 3.0057058897 3.0203000804 3.0348942711 3.0494884618 3.0640826525 3.0786768432 3.0932710339 