# vtk DataFile Version 4.2
vtk output
ASCII
DATASET UNSTRUCTURED_GRID
POINTS 1740 double
2144.07 -94.44003 0 2911 0 0 16.54298 -37.82236 0 
5.09149 -21.30132 0 1.27433 -10.75385 0 0 0 0 
2.54575 15.14293 0 6.36291 23.76126 0 14.00014 34.89063 0 
30.50239 50.70793 0 33.39435 -52.93479 0 2050.91 -103.7862 0 
60.1465 -69.72165 0 88.83633 -83.2817 0 118.7656 -94.71113 0 
153.4168 -105.7022 0 199.5806 -117.771 0 261.4466 -130.7139 0 
345.846 -144.1892 0 460.3522 -157.0592 0 608.4185 -167.1903 0 
783.2313 -172.4016 0 941.0559 -172.4533 0 1063.409 -170.1096 0 
1164.153 -166.8746 0 1263.449 -162.682 0 1375.468 -156.8941 0 
1513.293 -148.414 0 1665.281 -137.5317 0 1791.864 -127.3721 0 
2195.451 -89.09491 0 2273.924 -80.67077 0 2383.731 -68.3513 0 
2517.64 -52.47337 0 2649.227 -35.9232 0 2740.773 -23.82991 0 
2804.387 -15.13419 0 2848.802 -8.916218 0 2881.944 -4.196067 0 
56.61447 67.79801 0 84.09687 81.25172 0 112.4783 92.48395 0 
142.1748 102.3504 0 174.8563 111.6168 0 213.124 120.8806 0 
260.3759 130.5151 0 324.6539 141.1779 0 418.1422 152.9178 0 
535.6656 162.9871 0 690.9154 170.4255 0 902.6513 172.7852 0 
1100.32 169.0517 0 1270.99 162.3262 0 1462.794 151.6837 0 
1631.287 140.0952 0 1747.993 131 0 1922.788 115.9027 0 
2069.56 101.951 0 2128.804 96.0021 0 2297.147 78.11721 0 
2414.379 64.80104 0 2554.023 47.99319 0 2673.693 32.73885 0 
2757.97 21.50315 0 2814.297 13.7575 0 2852.02 8.460961 0 
2882.272 4.148909 0 1791.052 127.4402 0 1366.894 157.3738 0 
1444.38 -152.8302 0 1547.039 146.1296 0 1589.287 -143.1614 0 
1878.731 119.8675 0 1997.072 108.9828 0 1185.654 166.0472 0 
1882.536 -119.5292 0 1971.323 -111.4145 0 1684.777 136.0292 0 
2099.317 -98.9855 0 2234.809 84.9091 0 2181.695 90.53914 0 
1728.573 -132.5703 0 1718.815 133.3509 0 1834.825 123.7132 0 
1960.305 112.4444 0 2033.69 105.4648 0 2099.184 98.99892 0 
2214.291 -66.755756595 396.8421 2955.512 20.562900186 396.8421 158.0786 -18.055722153 396.8421 
147.0109 -2.1913839108 396.8421 143.3217 7.9654870195 396.8421 142.09 18.342725287 396.8421 
144.5505 32.99126237 396.8421 148.2398 41.347728743 396.8421 155.621 52.161087277 396.8421 
171.5701 67.57462488 396.8421 174.3652 -32.515954335 396.8421 2124.254 -75.537823651 396.8421 
200.2206 -48.515362323 396.8421 227.9488 -61.385809568 396.8421 256.8748 -72.192478377 396.8421 
290.3647 -82.544189244 396.8421 334.981 -93.85770123 396.8421 394.7733 -105.91457928 396.8421 
476.3434 -118.35350318 396.8421 587.0114 -130.05790768 396.8421 730.1145 -139.00060603 396.8421 
899.0676 -143.18143953 396.8421 1051.602 -142.59587198 396.8421 1169.853 -139.92837633 396.8421 
1267.221 -136.53010662 396.8421 1363.188 -132.26331329 396.8421 1471.452 -126.49055077 396.8421 
1604.657 -118.16785901 396.8421 1751.55 -107.63038981 396.8421 1873.891 -97.891560546 396.8421 
2263.949 -61.749132531 396.8421 2339.792 -53.879608977 396.8421 2445.918 -42.413007969 396.8421 
2575.338 -27.697472981 396.8421 2702.515 -12.422360853 396.8421 2790.992 -1.2950422496 396.8421 
2852.473 6.6907503626 396.8421 2895.4 12.394006054 396.8421 2927.431 16.719823283 396.8421 
196.807 84.293305383 396.8421 223.3682 97.506752302 396.8421 250.7983 108.57761466 396.8421 
279.4994 118.33514678 396.8421 311.0855 127.53095629 396.8421 348.0705 136.75943709 396.8421 
393.7383 146.40199718 396.8421 455.8617 157.14141423 396.8421 546.2162 169.08484984 396.8421 
659.8003 179.50859382 396.8421 809.846 187.51012871 396.8421 1014.485 190.70785826 396.8421 
1205.528 187.75282587 396.8421 1370.477 181.65619338 396.8421 1555.851 171.64279236 396.8421 
1718.696 160.5209615 396.8421 1831.49 151.69550448 396.8421 2000.426 136.91269399 396.8421 
2142.278 123.13742831 396.8421 2199.537 117.2363879 396.8421 2362.236 99.412261691 396.8421 
2475.539 86.071923515 396.8421 2610.501 69.163644984 396.8421 2726.16 53.761422823 396.8421 
2807.613 42.387623476 396.8421 2862.05 34.534171711 396.8421 2898.509 29.158528646 396.8421 
2927.749 24.779056645 396.8421 1873.106 148.22339399 396.8421 1463.165 177.03013013 396.8421 
1538.054 -122.4866127 396.8421 1637.272 166.33292111 396.8421 1678.104 -113.06556229 396.8421 
1957.846 140.80871186 396.8421 2072.22 130.09240086 396.8421 1288 185.06952702 396.8421 
1961.524 -90.423609969 396.8421 2047.334 -82.734910493 396.8421 1770.393 156.58436589 396.8421 
2171.038 -71.02231609 396.8421 2301.989 106.19470543 396.8421 2250.655 111.8045675 396.8421 
1812.721 -102.86431656 396.8421 1803.29 153.9832567 396.8421 1915.411 144.57869113 396.8421 
2036.686 133.50720091 396.8421 2107.61 126.61571493 396.8421 2170.909 120.21101355 396.8421 
2284.511 -44.194344995 793.6842 3000.027 38.129684981 793.6842 299.6143 -3.3830423919 793.6842 
288.9304 11.842204244 793.6842 285.3691 21.611773137 793.6842 284.1801 31.609722904 793.6842 
286.5551 45.750030973 793.6842 290.1167 53.831319033 793.6842 297.2417 64.305250762 793.6842 
312.6379 79.269304137 793.6842 315.336 -17.221210413 793.6842 2197.597 -52.596272866 793.6842 
340.2947 -32.48350001 793.6842 367.0612 -44.718872666 793.6842 394.9839 -54.95908946 793.6842 
427.3123 -64.735265948 793.6842 470.3812 -75.375837495 793.6842 528.0998 -86.651361273 793.6842 
606.8411 -98.185432446 793.6842 713.6708 -108.88101482 793.6842 851.8104 -116.799621 793.6842 
1014.904 -120.08776394 793.6842 1162.147 -118.93692905 793.6842 1276.298 -115.96700073 793.6842 
1370.288 -112.40057055 793.6842 1462.927 -108.03482426 793.6842 1567.436 -102.22602393 793.6842 
1696.021 -93.963308467 793.6842 1837.82 -83.619949436 793.6842 1955.917 -74.141878529 793.6842 
2332.447 -39.417730911 793.6842 2405.659 -31.927511877 793.6842 2508.105 -21.049165948 793.6842 
2633.037 -7.1430732255 793.6842 2755.801 7.2359041789 793.6842 2841.209 17.679351956 793.6842 
2900.561 25.160051869 793.6842 2941.997 30.495961907 793.6842 2972.917 34.539657366 793.6842 
336.9995 95.549548923 793.6842 362.6396 108.45627831 793.6842 389.1182 119.30025887 793.6842 
416.8239 128.8833606 793.6842 447.3145 137.93956818 793.6842 483.0167 147.05577012 793.6842 
527.1009 156.61676767 793.6842 587.0697 167.32025697 793.6842 674.2905 179.32216967 793.6842 
783.9349 189.94811411 793.6842 928.7766 198.36102992 793.6842 1126.317 202.27802648 793.6842 
1310.735 200.07922773 793.6842 1469.963 194.65889615 793.6842 1648.908 185.39944438 793.6842 
1806.105 174.91540407 793.6842 1914.987 166.51073216 793.6842 2078.064 152.31790576 793.6842 
2214.996 138.99512075 793.6842 2270.269 133.2646711 793.6842 2427.326 115.88520529 793.6842 
2536.699 102.81831432 793.6842 2666.98 86.1960754 793.6842 2778.628 71.004365599 793.6842 
2857.255 59.75970411 793.6842 2909.806 51.98382369 793.6842 2945.001 46.656275548 793.6842 
2973.224 42.313177021 793.6842 1955.16 163.18864654 793.6842 1559.437 190.41222981 793.6842 
1631.729 -98.237973294 793.6842 1727.505 180.41231267 793.6842 1766.921 -88.941622299 793.6842 
2036.96 156.07011131 793.6842 2147.368 145.73175589 793.6842 1390.347 197.7332309 793.6842 
2040.511 -66.915033281 793.6842 2123.346 -59.506103852 793.6842 1856.009 171.17409168 793.6842 
2242.759 -48.272360219 793.6842 2369.167 122.51002107 793.6842 2319.614 127.97899799 793.6842 
1896.869 -78.973197912 793.6842 1887.765 168.69516468 793.6842 1995.998 159.69346207 793.6842 
2113.066 149.0320222 793.6842 2181.531 142.36666707 793.6842 2242.634 136.15489395 793.6842 
2354.732 -26.666803409 1190.526 3044.539 52.215891072 1190.526 441.15 6.8465612145 1190.526 
430.8497 21.450540967 1190.526 427.4164 30.837255604 1190.526 426.2701 40.455207555 1190.526 
428.5601 54.077527225 1190.526 431.9934 61.873312258 1190.526 438.8627 71.989149417 1190.526 
453.7057 86.466159097 1190.526 456.3069 -6.3982943498 1190.526 2270.94 -34.812368409 1190.526 
480.3688 -20.970300718 1190.526 506.1737 -32.62092129 1190.526 533.0934 -42.346628792 1190.526 
564.26 -51.606318236 1190.526 605.7815 -61.650404317 1190.526 661.4265 -72.242592575 1190.526 
737.3385 -82.997216333 1190.526 840.33 -92.83737281 1190.526 973.5064 -99.901347624 1190.526 
1130.74 -102.45403822 1190.526 1272.693 -100.83897149 1190.526 1382.742 -97.618233588 1190.526 
1473.356 -93.908539186 1190.526 1562.666 -89.45259127 1190.526 1663.42 -83.59862861 1190.526 
1787.385 -75.357567497 1190.526 1924.09 -65.13071328 1190.526 2037.944 -55.820572327 1190.526 
2400.946 -22.045887006 1190.526 2471.527 -14.813327809 1190.526 2570.292 -4.3361992131 1190.526 
2690.735 9.0149771 1190.526 2809.091 22.776156456 1190.526 2891.43 32.746011383 1190.526 
2948.647 39.875781838 1190.526 2988.597 44.955772889 1190.526 3018.403 48.802662538 1190.526 
477.1918 102.25188903 1190.526 501.9109 114.79543802 1190.526 527.4382 125.35634887 1190.526 
554.1485 134.70814563 1190.526 583.5435 143.56426799 1190.526 617.963 152.50027313 1190.526 
660.4633 161.89955941 1190.526 718.2775 172.46467957 1190.526 802.3645 184.38932986 1190.526 
908.0698 195.06832073 1190.526 1047.707 203.73163925 1190.526 1238.151 208.21379836 1190.526 
1415.942 206.69441489 1190.526 1569.449 201.9355389 1190.526 1741.965 193.47014551 1190.526 
1893.514 183.7081418 1190.526 1998.484 175.80940475 1190.526 2155.702 162.3749629 1190.526 
2287.714 149.6837624 1190.526 2341.001 144.20595389 1190.526 2492.415 127.53481916 1190.526 
2597.858 114.95166886 1190.526 2723.46 98.894348777 1190.526 2831.095 84.176781288 1190.526 
2906.899 73.260515155 1190.526 2957.56 65.701723466 1190.526 2991.49 60.51849058 1190.526 
3018.699 56.290528238 1190.526 2037.214 172.67438462 1190.526 1655.708 198.08091079 1190.526 
1725.403 -79.611046567 1190.526 1817.738 188.84215106 1190.526 1855.738 -70.382316291 1190.526 
2116.075 165.9363975 1190.526 2222.516 156.10932524 1190.526 1492.694 204.67240239 1190.526 
2119.498 -48.752419696 1190.526 2199.357 -41.529619107 1190.526 1941.625 180.19832259 1190.526 
2314.479 -30.617490126 1190.526 2436.346 133.89912691 1190.526 2388.573 139.14446444 1190.526 
1981.017 -60.559939281 1190.526 1972.24 177.8670775 1190.526 2076.584 169.36921678 1190.526 
[...]
POINT_DATA 1740
FIELD FieldData 1
Pressure 1 1740 double
3.1043831913 3.0167527623 3.0095182977 2.9865747627 2.9755812023 2.9516893586 2.9677572489 2.9861169941 3.0180328957 
3.0307653109 3.0125041089 3.1080980364 3.036724489 3.0510171745 3.0676856046 3.0662590375 3.0832255482 3.0880499103 
3.1091973495 3.1132727804 3.1317060824 3.1402303978 3.1419555824 3.1473317817 3.1420725852 3.1377237774 3.134394303 
3.1305136882 3.1240022861 3.1187783079 3.10147307 3.0983941108 3.0926292735 3.0848948874 3.0738744172 3.0642328268 
3.053650888 3.0456169704 3.0353418988 3.0667908146 3.0796643336 3.0922135541 3.1048190874 3.1091107916 3.1190156682 
3.1259768038 3.1343342029 3.150661696 3.1641390657 3.1801669349 3.191741828 3.1990252693 3.2054434673 3.2111947582 
3.2154158654 3.2182259931 3.2191644109 3.1792376696 3.0780839253 3.0794050758 3.0752072661 3.0665389033 3.0567582031 
3.0468626335 3.0366922652 3.0303962408 3.0279536749 3.218189582 3.2087381192 3.1331332467 3.2125166414 3.1272807389 
3.2188549811 3.2183142822 3.2057036614 3.1148684016 3.1113134275 3.2160967353 3.1062173924 3.0814140093 3.0788045195 
3.1212864639 3.2174575726 3.2189648962 3.2202973767 3.2256616278 3.0596487734 3.1008732958 3.02249936 3.0260414745 
2.9987875084 3.0061986037 2.9840991816 2.9948843592 3.0079049446 3.0344438171 3.0526959342 3.0371459789 3.1049503481 
3.0566485198 3.0693733015 3.0828077655 3.0862084543 3.1019788248 3.1106115968 3.1242398689 3.1290675306 3.1394533435 
3.1429027991 3.1465992386 3.1462462455 3.141270491 3.13648284 3.1310941943 3.1266759975 3.12098706 3.1156018318 
3.0984369389 3.0945935168 3.0887870682 3.081219183 3.0701998132 3.0606024708 3.0505829131 3.0434449419 3.0263525175 
3.0853250462 3.1054705246 3.1168546729 3.1258161419 3.1344529843 3.1396646298 3.145162163 3.1548809466 3.1676595408 
3.1782092058 3.1871143695 3.1954177024 3.2021177555 3.208800963 3.2121130128 3.2151229899 3.2179209643 3.2204025532 
3.0906510131 3.0974369929 3.0899097456 3.0838979924 3.0750304595 3.0641177509 3.0540817772 3.0433959779 3.0379373243 
3.0383992616 3.2186401587 3.2108553462 3.1298635168 3.2142064029 3.1236456545 3.2198847559 3.2198302805 3.2073028678 
3.111699587 3.1080338832 3.216324728 3.1032105056 3.0930704389 3.0965310101 3.1185835852 3.2171373381 3.2190374818 
3.2207815409 3.2060124807 3.0985530218 3.0982083568 3.0235585359 3.0276789639 3.0014259601 3.0025154391 2.983042409 
2.9977494016 3.0104459985 3.0379839709 3.0591461579 3.0450386405 3.1023880646 3.0597503314 3.0789136583 3.0968990071 
3.1026808367 3.1159823007 3.1241332121 3.1361490168 3.1412936689 3.1491744339 3.150973542 3.1495546737 3.1473355666 
3.1404351559 3.1347426082 3.1291620332 3.1239653728 3.1183044738 3.1132991816 3.0960026787 3.0922290772 3.0865120581 
3.0788775454 3.0679239607 3.0581132182 3.0487698734 3.0418307946 3.0281071117 3.0908113352 3.112829842 3.1310368708 
3.1403949842 3.1544567389 3.161293971 3.1707777781 3.1750036755 3.1838804973 3.1941676564 3.1992573145 3.2052889832 
3.20845809 3.2156560188 3.2181264287 3.2191954207 3.221301917 3.2235371047 3.0869697778 3.0926696152 3.0909585599 
3.0858330001 3.0780577516 3.0673192783 3.057657305 3.0473772238 3.0404123381 3.0419694562 3.2216208016 3.2164821323 
3.1271745808 3.2190101363 3.1208718678 3.2224703477 3.2223345669 3.2128619458 3.1094324909 3.1055656522 3.2197808317 
3.1006900462 3.0928332792 3.093180806 3.1157609541 3.2202628661 3.2219159002 3.2233530796 3.0837621343 3.0887315401 
3.0964543801 3.0242915579 3.028747108 3.0015890471 3.0032306611 2.9813659265 2.9921654194 3.0060375359 3.0384656357 
3.0594945052 3.0457713917 3.1004524877 3.0662221449 3.0836548254 3.1029448176 3.110912772 3.1238115053 3.1312907571 
3.1436459395 3.1497330362 3.1560773509 3.1559215654 3.1526086135 3.148100128 3.1400345867 3.1342036773 3.1282158853 
3.1224580378 3.1164553272 3.1111995665 3.0941504965 3.0903405104 3.0850844449 3.0773895941 3.0669428089 3.0569763253 
3.0484630985 3.0412182296 3.0292623792 3.0940249385 3.1174539813 3.1332563259 3.1458905918 3.1521179133 3.1639050175 
3.176849882 3.1850833796 3.193362444 3.2049661461 3.2108063374 3.2151763481 3.2172161784 3.2237439019 3.2254906038 
3.2260061955 3.2276169944 3.2307996685 3.0934826548 3.0930506308 3.091266 3.0863274983 3.0784044023 3.0680030896 
3.0582538338 3.048636435 3.0410162996 3.0425563483 3.2275372527 3.2246105187 3.1259159972 3.2264438458 3.1192646061 
3.2279613626 3.0841533609 3.2211391196 3.1074979371 3.1037393388 3.2265975374 3.0985287921 3.0927718572 3.0929158262 
3.1135771299 3.2267695675 3.2277937137 3.1808897346 3.0887702018 3.0932634536 3.0950062058 3.0238025281 3.0309342081 
3.0024993527 3.0068536383 2.9851616436 2.9943432443 3.0068169672 3.0402321334 3.0608484045 3.047211577 3.0989772815 
3.0689466098 3.0864765038 3.1037242348 3.1131898516 3.1262725011 3.1364692786 3.1468277365 3.1535422797 3.1600545424 
3.1585591216 3.1536076229 3.1474807862 3.1388853394 3.1328371846 3.126673635 3.120967044 3.1148679869 3.1094380498 
3.0927337158 3.0888906435 3.0839458816 3.0762903762 3.0662722873 3.0563570824 3.0481897744 3.0406848682 3.0303459487 
3.0952969314 3.1189897635 3.1342216964 3.147168151 3.1569392784 3.1676065016 3.1789793941 3.1847417813 3.1958642926 
3.209204712 3.2187227916 3.2222269022 3.2250894249 3.2312499532 3.2325381671 3.2327071541 3.2340348456 3.2306167304 
3.0919838357 3.0922315018 3.0899061695 3.0847209253 3.0768470026 3.0666693401 3.0569859549 3.0476314164 3.0398161398 
3.0413683906 3.2340801969 3.2320284674 3.1244992093 3.233175769 3.1178405807 3.2345567604 3.0902388325 3.2288405076 
3.1059148778 3.1022828095 3.233299638 3.0968436569 3.0917952942 3.0921071643 3.1118593376 3.2335468466 3.2342383015 
3.0865201788 3.0914303148 3.0927447689 3.0938036987 3.0223299055 3.0319545579 3.0031109442 3.0079892549 2.9861480512 
2.9956017919 3.0083954961 3.0409808716 3.0628419927 3.0487770766 3.0978045472 3.0704960126 3.0888399537 3.1049705582 
3.1150619418 3.1281794302 3.1392817802 3.1502493894 3.1578950294 3.1633196901 3.1607071386 3.1542038187 3.1464847944 
3.1377785283 3.1315454704 3.1253649249 3.1194947569 3.113546259 3.1081729569 3.0914995711 3.0877388547 3.082960181 
3.0753308015 3.0656275487 3.0556927405 3.0477155075 3.0400345727 3.0310825429 3.0967506377 3.1208345533 3.1356548526 
3.1485457625 3.1578072672 3.1692977177 3.1818232761 3.1890827701 3.2004077905 3.2132391682 3.2243676894 3.2298865397 
3.2324401242 3.2385604571 3.2399597386 3.2396066184 3.2403648764 3.1034129509 3.0888773703 3.0892138377 3.0869798239 
3.0815339734 3.073824843 3.0639920693 3.0543555685 3.0453867073 3.037445328 3.0390658391 3.2403313776 3.2395180868 
3.123119704 3.2403816857 3.1164520217 3.240544996 3.0861761332 3.2361371577 3.1046969753 3.1011636971 3.2398984509 
3.095470344 3.0888658371 3.0887558413 3.1105323431 3.240049907 3.2401655798 3.0863654176 3.0881029692 3.0893640575 
3.0930758058 3.0209673745 3.0322759017 3.0033371852 3.0076966936 2.9861886292 2.9954858452 3.0087216909 3.0412222888 
3.0635187156 3.0492809956 3.0968688514 3.071082418 3.0899554114 3.1059671237 3.1166141142 3.1296767321 3.1416387124 
3.1522173307 3.1600426907 3.1660614171 3.1624782171 3.1546527826 3.1457335079 3.1373601575 3.1308869411 3.1247383339 
3.118509721 3.112877746 3.1074877546 3.0908066771 3.0871466016 3.0824019873 3.0748425264 3.0652352726 3.0550827504 
3.0472157472 3.039529367 3.0313681343 3.0975191314 3.1216756553 3.1369288677 3.1497052859 3.1593579101 3.1707575636 
3.1829737611 3.1911632066 3.2028362494 3.216333657 3.2280270036 3.2350368247 3.2389450472 3.2455331211 3.2468418399 
3.246452198 3.2467438039 3.0808267787 3.086071509 3.0854789406 3.0830646689 3.0779124726 3.0706362226 3.0611592282 
3.0516601051 3.0430764861 3.0352439237 3.0369093441 3.2467089937 3.2469353258 3.1222224803 3.2471731621 3.115684716 
3.257119658 3.0856967744 3.2427018673 3.103962309 3.1005086269 3.2465245808 3.094766295 3.0849563924 3.0851847117 
3.1099093288 3.2465699741 3.2468750957 3.0844262911 3.0853395808 3.0855353636 3.092868926 3.0204328404 3.0325809074 
3.003508142 3.0080205851 2.9868270043 2.9955384935 3.0089864475 3.0416964868 3.0639261455 3.0493764527 3.0967234678 
3.0713277342 3.0901945342 3.1059927613 3.1171430889 3.1302602018 3.1429004757 3.1533690297 3.1613472919 3.1681732786 
3.1639477595 3.1551916798 3.145426162 3.1375110243 3.1307581388 3.1247443503 3.118410203 3.112801914 3.1073740105 
3.0907064281 3.0870672777 3.0823050457 3.0747912022 3.0651694921 3.055053905 3.047147077 3.0394557797 3.0313867244 
3.0981920722 3.1223419315 3.1377718109 3.1506354166 3.1603720215 3.1718044402 3.1839421716 3.1928655666 3.2048241111 
3.2182696939 3.2304889786 3.2389584734 3.2437571201 3.2510772066 3.2536557332 3.2529157635 3.2532847128 3.0785866883 
3.0844933747 3.0835849901 3.0808942013 3.0761414413 3.0692487616 3.0597917335 3.0503749957 3.0421280968 3.0343434761 
3.0361770383 3.2537337638 3.2527094004 3.1221776459 3.2535017448 3.1155965074 3.2614683012 3.0830560777 3.2476851059 
3.1038449208 3.1004106373 3.2530305439 3.0945000205 3.0826392772 3.0832931507 3.1097993859 3.2530074251 3.2538315985 
3.0820787426 3.0835390993 3.0843724777 3.0932001492 3.0207182198 3.0329132599 3.0036348251 3.0088663917 2.9876460284 
2.9959188875 3.0095380845 3.0425176859 3.0646162938 3.0492714258 3.0972658724 3.0710515275 3.0899707817 3.1057841539 
3.1174065625 3.1305200392 3.1435555964 3.1540250856 3.1626340179 3.1699432945 3.1653658868 3.1560761765 3.1458373736 
3.1381919995 3.13127297 3.1253090625 3.1188000846 3.1132778863 3.1077787379 3.0910823505 3.0874201996 3.0825635668 
3.0750728592 3.0653430442 3.0552819619 3.0473254072 3.0396269935 3.0311058329 3.0992491409 3.1231855821 3.1389104318 
3.151838432 3.1615770413 3.1730674032 3.1850246406 3.1944329196 3.2067026895 3.2200122383 3.2324682294 3.2417849227 
3.2472463869 3.2549206177 3.2582905464 3.2585229054 3.259185631 3.0789126662 3.083879488 3.083161774 3.0809359774 
3.076390671 3.0696338117 3.0601066848 3.0508295265 3.0426841942 3.0349544325 3.036983023 3.2592280947 3.2572159681 
3.1225989566 3.2590187641 3.1160298472 3.2545117541 3.0818393167 3.2513043948 3.1042000045 3.1005711692 3.2587063977 
3.0949827822 3.0826951383 3.0832895989 3.1103600074 3.2586899338 3.2596951801 3.0842883531 3.0830443479 3.0841172294 
3.0940176428 3.0214230514 3.0332792259 3.0036619416 3.0096243124 2.9884043327 2.9963983631 3.0101639592 3.043778031 
3.0656980202 3.0484927766 3.0981848549 3.0702798281 3.0893627373 3.1053953247 3.1174036381 3.1303297872 3.1435528665 
3.1544124186 3.1632357604 3.1712170004 3.1665819106 3.1572962353 3.1467238184 3.1393155846 3.1322528147 3.1262979208 
3.1196746623 3.1141633805 3.1086318506 3.0918443506 3.088149518 3.0831641405 3.0756658304 3.0657638207 3.0557023964 
3.0476376234 3.0399611547 3.0305676407 3.1007439683 3.1244300951 3.1405009425 3.1534906168 3.1632357827 3.1747590371 
3.1865336142 3.1963175188 3.2088778883 3.2218949742 3.2344487743 3.2441600013 3.2498120013 3.2578821463 3.2619361763 
3.262831015 3.2632799483 3.0826768006 3.0851153593 3.0839843439 3.0809848429 3.0765887438 3.0700464097 3.0606960492 
3.0517303994 3.0436209236 3.0359956562 3.0383585948 3.2636976694 3.260338966 3.1235142605 3.2626455224 3.11692406 
3.252296685 3.0839996805 3.2538643638 3.1049526557 3.1014099013 3.2629569353 3.0959168963 3.0828791248 3.0835572656 
3.1113058658 3.2630404062 3.26459668 3.0895616587 3.0846088709 3.0852852675 3.0949910031 3.0220449852 3.0336869481 
3.003681827 3.0102961714 2.9893674232 2.9969995238 3.0107993835 3.0449169661 3.0670084747 3.0476305911 3.0991396433 
3.0692876911 3.0882733576 3.1046011904 3.1168804412 3.1296141733 3.1430744424 3.1542676366 3.1645233557 3.1715523614 
3.1673603712 3.1585711846 3.147937842 3.1406590548 3.1334153512 3.1274410463 3.1208650457 3.1152236352 3.1097352159 
3.0927628988 3.0890669148 3.0839381252 3.0764225684 3.0663209025 3.056250675 3.048036018 3.0403941603 3.0299158494 
3.1025618017 3.1261231454 3.1425038841 3.1555725826 3.1653136176 3.1768333437 3.1885104212 3.1985294366 3.2113936043 
3.2241137391 3.2366620963 3.2466400586 3.2520941189 3.2602475345 3.2647939204 3.2660448992 3.2666004445 3.085317435 
3.0850768931 3.0838736799 3.0805715469 3.0760904846 3.0697086851 3.0606469096 3.0520235193 3.0440092172 3.0365642576 
3.0393058443 3.2671722059 3.2629802756 3.1246902307 3.2657079452 3.1179919067 3.2482846147 3.0850069779 3.2559726338 
3.1057994615 3.1021766525 3.2662675795 3.0969910719 3.0824906406 3.0832137258 3.1124410883 3.266356174 3.2680674115 
3.0920138075 3.0843439029 3.0851264581 3.0960628271 3.022542368 3.0338578932 3.0034587653 3.0107543114 2.9902105654 
2.9977830367 3.0115716352 3.0463229388 3.0684196005 3.0464682109 3.1002374578 3.0678753456 3.0869687378 3.1028719565 
3.1150768529 3.1280708819 3.1417341858 3.1536680102 3.1640662875 3.1716523998 3.1681490856 3.1601473347 3.1495515233 
3.1422041035 3.134727125 3.128738489 3.1221861983 3.1163591771 3.1109167892 3.0938289867 3.0901076595 3.0847759584 
3.0772381257 3.0669174184 3.0568463126 3.0484279852 3.0408439391 3.0292485394 3.1046031495 3.1283041505 3.1447769771 
3.1579087846 3.1676789659 3.1791531853 3.1908674419 3.2010607787 3.2142901277 3.2268007589 3.2392689205 3.2492876848 
3.2545362282 3.2624930495 3.2675414471 3.2689261472 3.269363755 3.0824517521 3.0827310073 3.0817789758 3.0790461758 
3.0747564605 3.0685820642 3.0598825028 3.0516064326 3.0437698922 3.0365553057 3.0396221273 3.2700124388 3.2654002596 
3.1260525841 3.2681898293 3.1193119851 3.2317177816 3.0829546096 3.25817713 3.1069737125 3.1032018528 3.2689501086 
3.0981466652 3.0807810532 3.0813554474 3.1136729638 3.2690880339 3.2709449367 3.0884358149 3.0817411344 3.0832717799 
3.0972020349 3.0230661097 3.0339782078 3.0030741255 3.0100909163 2.9908326946 2.9984094509 3.0123233391 3.0477745035 
3.0698789534 3.0449296711 3.1014633653 3.0661204836 3.0855791908 3.1002910447 3.1122819163 3.1257885584 3.1396577048 
3.1526415994 3.1632189785 3.1713346018 3.1688365335 3.1619766718 3.1514971749 3.1438940763 3.1361644233 3.1301162188 
3.1236049992 3.1177483581 3.1122229583 3.0949516021 3.0912106457 3.0856942589 3.0780946208 3.0675880283 3.0574521221 
3.0488221693 3.0413631814 3.0287538761 3.1066909592 3.1308117385 3.1470399511 3.1603162597 3.1701394755 3.1816458363 
3.1935304594 3.203873173 3.2176203005 3.2299062077 3.2422194745 3.2522667627 3.2572836736 3.264980035 3.270304072 
3.2715196936 3.2719373522 3.0772148728 3.0795440309 3.0790455617 3.0773148119 3.0733822989 3.0674313727 3.0589715654 
3.0509761655 3.0433189111 3.0363586114 3.0397522287 3.2727025427 3.2679746775 3.1274879272 3.2708622234 3.1208202427 
3.1915570779 3.0788928238 3.2607007212 3.1082854181 3.1043877384 3.2716543533 3.0993794403 3.0786061882 3.0789467068 
3.1151317752 3.2717242147 3.2765194487 3.082390153 3.0798502818 3.0799903424 3.098403357 3.0237749726 3.0337975458 
3.0030456959 3.0099998216 2.9917681551 2.9993077855 3.0130067654 3.0492492649 3.0712639321 3.0433292591 3.1027882326 
3.064533169 3.0842122547 3.0978383056 3.1096786777 3.123518592 3.1374600927 3.1515563433 3.1624118994 3.170894249 
3.1694994801 3.1638838022 3.1537195823 3.1456359412 3.1376054372 3.1314068517 3.1251955282 3.1191822269 3.1136557104 
3.0961478129 3.0923727354 3.0866587253 3.0790287509 3.0683285829 3.0580593335 3.0492898117 3.0419270072 3.0285190941 
3.1088988007 3.1332804248 3.1494034608 3.1628757883 3.1726664309 3.1843774825 3.1964787837 3.2068945782 3.2212254626 
3.2332702145 3.245552023 3.2554790434 3.2603682121 3.267802422 3.2732349289 3.2744191595 3.2747074497 3.0761343157 
3.0787713948 3.0781546894 3.076447835 3.0728566348 3.06693493 3.0585662928 3.0507751554 3.0431555632 3.0364802952 
3.040029015 3.2754868387 3.2708763602 3.1290449412 3.2736446016 3.1222918897 3.1257937815 3.0778757692 3.2636027677 
3.1095848072 3.1056751765 3.2744436698 3.1006692742 3.0777585022 3.0780842042 3.1167038352 3.274545631 3.2766502714 
3.0802948152 3.0789253932 3.0786580255 3.0996241297 3.0245444272 3.0336066278 3.0031179647 3.0106973794 2.9926137412 
3.000346154 3.0139182367 3.0508125478 3.0728472834 3.0419739587 3.1041100725 3.0630499732 3.082739668 3.0960122715 
3.1076581071 3.1216384807 3.1352469647 3.1505054089 3.1617794591 3.170012615 3.1706365425 3.1661082127 3.1562458397 
3.1474059514 3.1390428328 3.1324662771 3.1266840151 3.120908099 3.1151934868 3.0973327366 3.0934526515 3.0876136493 
3.0799411515 3.0689880754 3.0585857514 3.0496750313 3.042336745 3.0283113219 3.1110715777 3.1356864695 3.1515759477 
3.1653668899 3.175146045 3.1870013708 3.1994580397 3.2098852493 3.2246493896 3.2365743515 3.2486517682 3.2588599734 
3.2637464435 3.2709969363 3.2764749477 3.277907133 3.2788874274 3.0779937287 3.078962523 3.0784015061 3.0762818916 
3.0727372584 3.0666343799 3.0585467157 3.0509599546 3.043318063 3.0368664281 3.0406324977 3.2789179519 3.2741716314 
3.1303661788 3.2769491642 3.1236681022 3.0945909164 3.080174081 3.2668628745 3.1109439572 3.1070512193 3.2779275927 
3.1019471648 3.0774444272 3.0780762678 3.1184339995 3.2781501399 3.2673550826 3.0816647693 3.0790924787 3.078955013 
3.1005415435 3.025078183 3.0318891162 3.0020836336 3.0108930973 2.9922524427 3.0007653465 3.0144397344 3.0510884388 
3.0737860567 3.0400224729 3.1049365127 3.0609792216 3.0806965153 3.0944101351 3.1060168609 3.1199905309 3.1330361502 
3.1500403988 3.160627579 3.1698462524 3.1721569435 3.168456696 3.1589828483 3.1491425196 3.1404221233 3.1334017108 
3.1279011197 3.1224111449 3.1163990964 3.0981103133 3.0941335554 3.0883486434 3.0805090226 3.0693245318 3.0588466439 
3.0497931948 3.0424078366 3.0276512327 3.1125185248 3.1374683916 3.1530928595 3.1669253047 3.176859082 3.1892500723 
3.2020629465 3.2124770933 3.2273012755 3.2395361308 3.2523114056 3.2615818344 3.2673722369 3.2749190384 3.2818919596 
3.2825795566 3.282286423 3.0800147065 3.0785842493 3.0782804033 3.0765062889 3.072728318 3.0665418151 3.0587819524 
3.0513897264 3.0435896492 3.0373972661 3.0411534918 3.2868796969 3.2785668642 3.1316164301 3.2824528738 3.1247149173 
3.0815718171 3.0792834182 3.2704545645 3.1120967204 3.1080654477 3.2831929157 3.1028091433 3.0778072841 3.0783718862 
3.1195256185 3.2833710353 3.0573387992 3.0813703321 3.0789515654 3.0786607627 3.1006865015 3.0254311804 3.0304280374 
2.9998154792 3.0062959482 2.9914157838 3.0001159204 3.0140479058 3.0496705163 3.0734598752 3.0384103749 3.1047169446 
3.0596811107 3.0795771334 3.0943950059 3.105214277 3.1196562285 3.1315608534 3.1504497905 3.1613563771 3.1715521172 
3.1762446959 3.1718867157 3.1624854105 3.1502317354 3.1413237688 3.134242984 3.1281610907 3.1210200712 3.1162773014 
3.0984555466 3.0944182213 3.0886979682 3.0810595204 3.0695163078 3.0587098229 3.0495217097 3.0419938904 3.0266555938 
3.1126959761 3.1378965667 3.1539988999 3.1685415481 3.1785342207 3.1910646568 3.2041026251 3.2151759889 3.2308327725 
3.2438249561 3.2567923103 3.2691212896 3.2729404165 3.2801761618 3.2857024474 3.2844424417 3.2792329949 3.0780971892 
3.0803888939 3.0799035256 3.0784856866 3.0743110127 3.0682393961 3.059997619 3.0527173222 3.0450691175 3.0384817591 
3.0429061652 3.1225051228 3.2835254136 3.1315691368 3.2856409186 3.1244303129 3.0758294264 3.0799330392 3.275770245 
3.1117740912 3.1079297585 3.2865474242 3.1030168608 3.0797484727 3.0804113561 3.1183992854 3.2851022705 3.0783479049 
3.0775077724 3.0802564227 3.0805245722 3.1000996279 3.0285144014 3.032859581 3.0036518589 3.0086753907 2.9907633589 
3.0008185932 3.0157284789 3.0482656636 3.0718285486 3.0417479328 3.1034937064 3.0632934984 3.0831637313 3.0972328476 
3.109108696 3.1227989639 3.1354964011 3.1547153972 3.1745356829 3.1788078253 3.1805469292 3.1741528421 3.1614858547 
3.1492196988 3.1402023334 3.1326120787 3.1264807262 3.1194951568 3.1137633349 3.0970093924 3.0948335306 3.0891661883 
3.079504912 3.0694920803 3.0580280777 3.0486763217 3.0398837974 3.0256232159 3.1090809213 3.1365969377 3.1590661891 
3.1735192894 3.1823067025 3.2013429777 3.2101801076 3.2208250148 3.2382317716 3.2511390361 3.2669006524 3.2744863409 