# vtk DataFile Version 4.2
vtk output
ASCII
DATASET POLYDATA
POINTS 6598 float
2547.48 -2873.13 5800 2551.87 -2876.88 5800 2559.96 -2873.13 5800 
2536.06 -2860.13 5800 2580.87 -2863.44 5800 2588 -2860.13 5800 
2528.36 -2847.13 5800 2609.87 -2849.99 5800 2616.05 -2847.13 5800 
2522.8 -2834.13 5800 2522.87 -2834.32 5800 2638.87 -2836.55 5800 
2643.41 -2834.13 5800 2518.15 -2821.13 5800 2659.06 -2821.13 5800 
2513.49 -2808.13 5800 2667.47 -2808.12 5800 2508.84 -2795.13 5800 
2667.88 -2807.28 5800 2673.3 -2795.12 5800 2504.18 -2782.13 5800 
2679.09 -2782.12 5800 2499.53 -2769.13 5800 2684.88 -2769.12 5800 
2494.87 -2756.13 5800 2690.68 -2756.12 5800 2485.98 -2743.13 5800 
2493.87 -2754.39 5800 2696.47 -2743.12 5800 2469.07 -2730.12 5800 
2696.88 -2742.2 5800 2702.27 -2730.12 5800 2452.17 -2717.12 5800 
2464.88 -2726.9 5800 2708.06 -2717.12 5800 2435.26 -2704.12 5800 
2435.88 -2704.6 5800 2713.85 -2704.11 5800 2418.36 -2691.12 5800 
2719.65 -2691.11 5800 2401.45 -2678.12 5800 2406.88 -2682.3 5800 
2725.44 -2678.11 5800 2384.55 -2665.12 5800 2725.89 -2677.35 5800 
2732.61 -2665.11 5800 2367.64 -2652.12 5800 2377.88 -2659.99 5800 
2744.88 -2652.11 5800 2350.73 -2639.12 5800 2754.89 -2642.83 5800 
2758.91 -2639.11 5800 2333.83 -2626.12 5800 2348.88 -2637.69 5800 
2772.94 -2626.11 5800 2316.92 -2613.12 5800 2319.88 -2615.39 5800 
2783.89 -2615.95 5800 2786.97 -2613.1 5800 2300.02 -2600.12 5800 
2801 -2600.1 5800 2283.11 -2587.12 5800 2290.88 -2593.09 5800 
2812.9 -2589.07 5800 2815.03 -2587.1 5800 2266.21 -2574.12 5800 
2829.48 -2574.1 5800 2246.53 -2561.12 5800 2261.88 -2570.97 5800 
2841.9 -2563.63 5800 2845.05 -2561.1 5800 2226.28 -2548.12 5800 
2232.88 -2552.36 5800 2861.22 -2548.1 5800 2206.03 -2535.12 5800 
2870.9 -2540.32 5800 2876.98 -2535.1 5800 2185.78 -2522.12 5800 
2203.88 -2533.74 5800 2892.62 -2522.09 5800 2165.53 -2509.12 5800 
2174.88 -2515.12 5800 2899.91 -2516.24 5800 2907.64 -2509.09 5800 
2145.29 -2496.12 5800 2145.88 -2496.5 5800 2921.69 -2496.09 5800 
2125.04 -2483.12 5800 2928.91 -2489.44 5800 2935.79 -2483.09 5800 
2104.79 -2470.12 5800 2116.88 -2477.88 5800 2949.86 -2470.09 5800 
2085.51 -2457.12 5800 2087.88 -2459.26 5800 2957.91 -2462.65 5800 
2963.94 -2457.09 5800 2076.98 -2444.12 5800 2978.01 -2444.09 5800 
2072.87 -2431.12 5800 2986.92 -2435.86 5800 2992.09 -2431.08 5800 
2070.72 -2418.11 5800 3006.16 -2418.08 5800 2070.84 -2405.11 5800 
3015.92 -2409.07 5800 3020.24 -2405.08 5800 2071.31 -2392.11 5800 
3034.31 -2392.08 5800 2071.78 -2379.11 5800 3044.92 -2382.28 5800 
3048.38 -2379.08 5800 2072.25 -2366.11 5800 3062.46 -2366.08 5800 
2072.72 -2353.11 5800 3073.92 -2355.49 5800 3076.53 -2353.07 5800 
2073.2 -2340.11 5800 3090.61 -2340.07 5800 2073.67 -2327.11 5800 
3102.93 -2328.69 5800 3104.68 -2327.07 5800 2074.15 -2314.11 5800 
3118.76 -2314.07 5800 2074.63 -2301.11 5800 3131.93 -2301.9 5800 
3132.83 -2301.07 5800 2075.11 -2288.1 5800 3144.6 -2288.07 5800 
2075.59 -2275.1 5800 3150.37 -2275.07 5800 2076.07 -2262.1 5800 
3153.27 -2262.07 5800 2076.56 -2249.1 5800 3154.72 -2249.06 5800 
2077.04 -2236.1 5800 3156.17 -2236.06 5800 2077.53 -2223.1 5800 
3157.62 -2223.06 5800 2078.02 -2210.1 5800 3159.07 -2210.06 5800 
2078.52 -2197.1 5800 3160.52 -2197.06 5800 2079.01 -2184.1 5800 
3160.94 -2193.29 5800 3161.97 -2184.06 5800 2079.5 -2171.1 5800 
3163.42 -2171.06 5800 2080 -2158.09 5800 3164.87 -2158.06 5800 
2080.5 -2145.09 5800 3166.32 -2145.06 5800 2081 -2132.09 5800 
3167.77 -2132.05 5800 2081.5 -2119.09 5800 3169.21 -2119.05 5800 
2082.01 -2106.09 5800 3170.66 -2106.05 5800 2082.51 -2093.09 5800 
3172.11 -2093.05 5800 2083.02 -2080.09 5800 3173.56 -2080.05 5800 
2083.53 -2067.09 5800 3175.01 -2067.05 5800 2082.58 -2054.09 5800 
3176.46 -2054.05 5800 2079.93 -2041.09 5800 3177.91 -2041.05 5800 
2077.33 -2028.08 5800 3179.36 -2028.05 5800 2074.73 -2015.08 5800 
3180.71 -2015.05 5800 2072.13 -2002.08 5800 3182.04 -2002.04 5800 
2069.53 -1989.08 5800 3183.02 -1989.04 5800 2066.94 -1976.08 5800 
3184 -1976.04 5800 2064.34 -1963.08 5800 3184.97 -1963.04 5800 
2061.74 -1950.08 5800 3185.94 -1950.04 5800 2059.14 -1937.08 5800 
3186.91 -1937.04 5800 2056.54 -1924.08 5800 2058.92 -1936 5800 
3187.88 -1924.04 5800 2053.94 -1911.08 5800 3188.86 -1911.04 5800 
2051.34 -1898.08 5800 3189.83 -1898.04 5800 2048.74 -1885.07 5800 
3189.96 -1896.23 5800 3190.8 -1885.04 5800 2046.14 -1872.07 5800 
3191.77 -1872.03 5800 2043.54 -1859.07 5800 3192.75 -1859.03 5800 
2040.95 -1846.07 5800 3193.72 -1846.03 5800 2038.35 -1833.07 5800 
3194.69 -1833.03 5800 2035.75 -1820.07 5800 3195.66 -1820.03 5800 
2033.15 -1807.07 5800 3196.64 -1807.03 5800 2030.55 -1794.07 5800 
3197.61 -1794.03 5800 2027.95 -1781.07 5800 2029.93 -1790.98 5800 
3198.58 -1781.03 5800 2025.35 -1768.07 5800 3199.55 -1768.03 5800 
2022.75 -1755.07 5800 3200.52 -1755.02 5800 2020.15 -1742.06 5800 
3201.5 -1742.02 5800 2017.55 -1729.06 5800 3202.47 -1729.02 5800 
2014.88 -1716.06 5800 3203.44 -1716.02 5800 2012.2 -1703.06 5800 
3204.41 -1703.02 5800 2009.51 -1690.06 5800 3205.39 -1690.02 5800 
2012.29 -1677.06 5800 3206.36 -1677.02 5800 2014.51 -1664.06 5800 
3207.33 -1664.02 5800 2016.52 -1651.06 5800 3209.29 -1651.02 5800 
2020.52 -1638.06 5800 3213.97 -1638.02 5800 2024.51 -1625.06 5800 
3218.99 -1628.64 5800 3221.61 -1625.01 5800 2028.51 -1612.05 5800 
3231.75 -1612.01 5800 2029.95 -1607.4 5800 2032.51 -1599.05 5800 
3242.09 -1599.01 5800 2036.51 -1586.05 5800 3247.99 -1591.38 5800 
3251.04 -1586.01 5800 2040.51 -1573.05 5800 3254.28 -1573.01 5800 
2044.51 -1560.05 5800 3256.69 -1560.01 5800 2048.51 -1547.05 5800 
3258.77 -1547.01 5800 2052.51 -1534.05 5800 3259.17 -1534.01 5800 
2056.51 -1521.05 5800 3259.57 -1521 5800 2058.8 -1508.05 5800 
3259.96 -1508 5800 2058.96 -1506.41 5800 2060.07 -1495.04 5800 
3260.36 -1495 5800 2061.34 -1482.04 5800 3260.75 -1482 5800 
2062.61 -1469.04 5800 3261.15 -1469 5800 2063.88 -1456.04 5800 
3261.55 -1456 5800 2065.15 -1443.04 5800 3261.94 -1443 5800 
2066.42 -1430.04 5800 3262.34 -1430 5800 2067.7 -1417.04 5800 
3262.73 -1417 5800 2068.97 -1404.04 5800 3263.13 -1404 5800 
2070.41 -1391.04 5800 3263.53 -1390.99 5800 2071.98 -1378.03 5800 
3263.92 -1377.99 5800 2073.5 -1365.03 5800 3264.32 -1364.99 5800 
2074.01 -1352.03 5800 3264.71 -1351.99 5800 2073.67 -1339.03 5800 
3265.11 -1338.99 5800 2073.33 -1326.03 5800 3265.51 -1325.99 5800 
2073.04 -1313.03 5800 3265.9 -1312.99 5800 2072.8 -1300.03 5800 
3266.3 -1299.99 5800 2072.58 -1287.03 5800 3266.69 -1286.99 5800 
2072.4 -1274.03 5800 3267.09 -1273.99 5800 2072.24 -1261.03 5800 
3267.49 -1260.98 5800 2072.1 -1248.02 5800 3267.88 -1247.98 5800 
2071.4 -1235.02 5800 3268.28 -1234.98 5800 2070.38 -1222.02 5800 
3268.67 -1221.98 5800 2069.37 -1209.02 5800 3269.07 -1208.98 5800 
2068.35 -1196.02 5800 3269.47 -1195.98 5800 2067.33 -1183.02 5800 
3269.92 -1182.98 5800 2066.32 -1170.02 5800 3270.36 -1169.98 5800 
2065.3 -1157.02 5800 3270.79 -1156.98 5800 2064.28 -1144.02 5800 
3271.22 -1143.98 5800 2063.26 -1131.02 5800 3271.64 -1130.97 5800 
2062.25 -1118.01 5800 3272.14 -1117.97 5800 2061.23 -1105.01 5800 
3272.7 -1104.97 5800 2060.19 -1092.01 5800 3273.35 -1091.97 5800 
2056.97 -1079.01 5800 2058.99 -1087.17 5800 3274.23 -1078.97 5800 
2054.37 -1066.01 5800 3275.13 -1065.97 5800 2052.75 -1053.01 5800 
3276.02 -1052.97 5800 2052.28 -1040.01 5800 3276.91 -1039.97 5800 
2054.44 -1027.01 5800 3277.03 -1038.23 5800 3277.81 -1026.97 5800 
2056.59 -1014.01 5800 3278.7 -1013.96 5800 2058.75 -1001.01 5800 
3279.6 -1000.96 5800 2058.99 -999.524 5800 2060.9 -988.005 5800 
3280.49 -987.963 5800 2063.06 -975.004 5800 3281.38 -974.962 5800 
2065.21 -962.003 5800 3281.85 -961.961 5800 2067.37 -949.002 5800 
3281.98 -948.96 5800 2069.52 -936.001 5800 2556.38 -935.984 5800 
2581.02 -943.516 5800 2598.62 -935.982 5800 3282.08 -935.959 5800 
2071.68 -923 5800 2537.29 -922.984 5800 2552.02 -934.594 5800 
2610.02 -931.104 5800 2632.57 -922.98 5800 3280.25 -922.958 5800 
2073.83 -909.998 5800 2519.13 -909.983 5800 2523.02 -912.889 5800 
2639.02 -920.562 5800 2668.02 -919.932 5800 2697.02 -920.147 5800 
2726.02 -920.362 5800 2748.83 -909.975 5800 3277.79 -909.957 5800 
2075.98 -896.997 5800 2501.78 -896.983 5800 2755.03 -906.234 5800 
2759.97 -896.974 5800 3277.04 -905.983 5800 3275.32 -896.956 5800 
2078.14 -883.996 5800 2485.19 -883.982 5800 2494.02 -891.14 5800 
2766.9 -883.973 5800 3272.88 -883.955 5800 2080.29 -870.995 5800 
2469.15 -870.982 5800 2773.84 -870.971 5800 3270.42 -870.954 5800 
2082.45 -857.994 5800 2451.69 -857.981 5800 2465.02 -867.629 5800 
2780.77 -857.97 5800 3267.96 -857.953 5800 2084.6 -844.993 5800 
2437.08 -844.981 5800 2784.03 -851.864 5800 2787.71 -844.969 5800 
3265.5 -844.952 5800 2086.75 -831.992 5800 2423.98 -831.98 5800 
2436.02 -844.118 5800 2794.64 -831.968 5800 3263.04 -831.951 5800 
2088.01 -824.44 5800 2088.91 -818.991 5800 2412.87 -818.98 5800 
2801.58 -818.966 5800 3260.59 -818.951 5800 2091.01 -805.99 5800 
2404.18 -805.979 5800 2407.02 -810.14 5800 2809.84 -805.965 5800 
3257.87 -805.95 5800 2093.06 -792.989 5800 2395.29 -792.978 5800 
2813.04 -802.664 5800 2822.84 -792.964 5800 3254.61 -792.949 5800 
2095.12 -779.988 5800 2385.81 -779.978 5800 2836.61 -779.962 5800 
3251.25 -779.948 5800 2096.73 -766.987 5800 2377.51 -766.977 5800 
2378.02 -767.721 5800 2842.04 -775.027 5800 2851.41 -766.961 5800 
3248.05 -767.579 5800 3247.91 -766.947 5800 2097.49 -753.986 5800 
2368.63 -753.976 5800 2866.5 -753.959 5800 3245.25 -753.946 5800 
2096.08 -740.985 5800 2359.74 -740.976 5800 2871.04 -750.052 5800 
2877.67 -740.958 5800 3243.03 -740.945 5800 2094.56 -727.984 5800 
2350.85 -727.975 5800 2885.44 -727.956 5800 3241.15 -727.944 5800 
2093.06 -714.983 5800 2342.01 -714.974 5800 2349.03 -725.292 5800 
2891.27 -714.955 5800 3240.14 -714.943 5800 2092.11 -701.982 5800 
2333.24 -701.974 5800 2896.43 -701.954 5800 3240.11 -701.942 5800 
2094.07 -688.981 5800 2325.49 -688.973 5800 2900.05 -692.857 5800 
[...]
POINT_DATA 6598
SCALARS Pressure double
LOOKUP_TABLE default
3.0932710339 3.0932710339 3.0932710339 3.0932710339 3.0932710339 3.0932710339 3.0932710339 3.0932710339 3.0932710339 
3.0932710339 3.0932710339 3.0932710339 3.0932710339 3.0932710339 3.0932710339 3.0932710339 3.0932710339 3.0932710339 
3.0932710339 3.0932710339 3.0932710339 3.0932710339 3.0932710339 3.0932710339 3.0932710339 3.0932710339 3.0932710339 
3.0932710339 3.0932710339 3.0932710339 3.0932710339 3.0932710339 3.0932710339 3.0932710339 3.0932710339 3.0932710339 
3.0932710339 3.0932710339 3.0932710339 3.0932710339 3.0932710339 3.0932710339 3.0932710339 3.0932710339 3.0932710339 
3.0932710339 3.0932710339 3.0932710339 3.0932710339 3.0932710339 3.0932710339 3.0932710339 3.0932710339 3.0932710339 
3.0932710339 3.0932710339 3.0932710339 3.0932710339 3.0932710339 3.0932710339 3.0932710339 3.0932710339 3.0932710339 
3.0932710339 3.0932710339 3.0932710339 3.0932710339 3.0932710339 3.0932710339 3.0932710339 3.0932710339 3.0932710339 
3.0932710339 3.0932710339 3.0932710339 3.0932710339 3.0932710339 3.0932710339 3.0932710339 3.0932710339 3.0932710339 
3.0932710339 3.0932710339 3.0932710339 3.0932710339 3.0932710339 3.0932710339 3.0932710339 3.0932710339 3.0932710339 
3.0932710339 3.0932710339 3.0932710339 3.0932710339 3.0932710339 3.0932710339 3.0932710339 3.0932710339 3.0932710339 
3.0932710339 3.0932710339 3.0932710339 3.0932710339 3.0932710339 3.0932710339 3.0932710339 3.0932710339 3.0932710339 
3.0932710339 3.0932710339 3.0932710339 3.0932710339 3.0932710339 3.0932710339 3.0932710339 3.0932710339 3.0932710339 
3.0932710339 3.0932710339 3.0932710339 3.0932710339 3.0932710339 3.0932710339 3.0932710339 3.0932710339 3.0932710339 
3.0932710339 3.0932710339 3.0932710339 3.0932710339 3.0932710339 3.0932710339 3.0932710339 3.0932710339 3.0932710339 
3.0932710339 3.0932710339 3.0932710339 3.0932710339 3.0932710339 3.0932710339 3.0932710339 3.0932710339 3.0932710339 
3.0932710339 3.0932710339 3.0932710339 3.0932710339 3.0932710339 3.0932710339 3.0932710339 3.0932710339 3.0932710339 
3.0932710339 3.0932710339 3.0932710339 3.0932710339 3.0932710339 3.0932710339 3.0932710339 3.0932710339 3.0932710339 
3.0932710339 3.0932710339 3.0932710339 3.0932710339 3.0932710339 3.0932710339 3.0932710339 3.0932710339 3.0932710339 
3.0932710339 3.0932710339 3.0932710339 3.0932710339 3.0932710339 3.0932710339 3.0932710339 3.0932710339 3.0932710339 
3.0932710339 3.0932710339 3.0932710339 3.0932710339 3.0932710339 3.0932710339 3.0932710339 3.0932710339 3.0932710339 
3.0932710339 3.0932710339 3.0932710339 3.0932710339 3.0932710339 3.0932710339 3.0932710339 3.0932710339 3.0932710339 
3.0932710339 3.0932710339 3.0932710339 3.0932710339 3.0932710339 3.0932710339 3.0932710339 3.0932710339 3.0932710339 
3.0932710339 3.0932710339 3.0932710339 3.0932710339 3.0932710339 3.0932710339 3.0932710339 3.0932710339 3.0932710339 
3.0932710339 3.0932710339 3.0932710339 3.0932710339 3.0932710339 3.0932710339 3.0932710339 3.0932710339 3.0932710339 
3.0932710339 3.0932710339 3.0932710339 3.0932710339 3.0932710339 3.0932710339 3.0932710339 3.0932710339 3.0932710339 
3.0932710339 3.0932710339 3.0932710339 3.0932710339 3.0932710339 3.0932710339 3.0932710339 3.0932710339 3.0932710339 
3.0932710339 3.0932710339 3.0932710339 3.0932710339 3.0932710339 3.0932710339 3.0932710339 3.0932710339 3.0932710339 
3.0932710339 3.0932710339 3.0932710339 3.0932710339 3.0932710339 3.0932710339 3.0932710339 3.0932710339 3.0932710339 
3.0932710339 3.0932710339 3.0932710339 3.0932710339 3.0932710339 3.0932710339 3.0932710339 3.0932710339 3.0932710339 
3.0932710339 3.0932710339 3.0932710339 3.0932710339 3.0932710339 3.0932710339 3.0932710339 3.0932710339 3.0932710339 
3.0932710339 3.0932710339 3.0932710339 3.0932710339 3.0932710339 3.0932710339 3.0932710339 3.0932710339 3.0932710339 
3.0932710339 3.0932710339 3.0932710339 3.0932710339 3.0932710339 3.0932710339 3.0932710339 3.0932710339 3.0932710339 
3.0932710339 3.0932710339 3.0932710339 3.0932710339 3.0932710339 3.0932710339 3.0932710339 3.0932710339 3.0932710339 
3.0932710339 3.0932710339 3.0932710339 3.0932710339 3.0932710339 3.0932710339 3.0932710339 3.0932710339 3.0932710339 
3.0932710339 3.0932710339 3.0932710339 3.0932710339 3.0932710339 3.0932710339 3.0932710339 3.0932710339 3.0932710339 
3.0932710339 3.0932710339 3.0932710339 3.0932710339 3.0932710339 3.0932710339 3.0932710339 3.0932710339 3.0932710339 
3.0932710339 3.0932710339 3.0932710339 3.0932710339 3.0932710339 3.0932710339 3.0932710339 3.0932710339 3.0932710339 
3.0932710339 3.0932710339 3.0932710339 3.0932710339 3.0932710339 3.1078652246 3.1078652246 3.1078652246 3.0932710339 
3.0932710339 3.1078652246 3.1078652246 3.1078652246 3.1078652246 3.0932710339 3.0932710339 3.1078652246 3.1078652246 
3.1078652246 3.1078652246 3.1078652246 3.1078652246 3.1078652246 3.0932710339 3.0932710339 3.1078652246 3.1078652246 
3.1078652246 3.0932710339 3.0932710339 3.0932710339 3.1078652246 3.1078652246 3.1078652246 3.0932710339 3.0932710339 
3.1078652246 3.1078652246 3.0932710339 3.0932710339 3.1078652246 3.1078652246 3.1078652246 3.0932710339 3.0932710339 
3.1078652246 3.1078652246 3.1078652246 3.0932710339 3.0932710339 3.1078652246 3.1078652246 3.1078652246 3.0932710339 
3.0932710339 3.0932710339 3.1078652246 3.1078652246 3.0932710339 3.0932710339 3.1078652246 3.1078652246 3.1078652246 
3.0932710339 3.0932710339 3.1078652246 3.1078652246 3.1078652246 3.0932710339 3.0932710339 3.1078652246 3.1078652246 
3.0932710339 3.0932710339 3.1078652246 3.1078652246 3.1078652246 3.1078652246 3.0932710339 3.0932710339 3.0932710339 
3.1078652246 3.1078652246 3.0932710339 3.0932710339 3.1078652246 3.1078652246 3.1078652246 3.0932710339 3.0932710339 
3.1078652246 3.1078652246 3.0932710339 3.0932710339 3.1078652246 3.1078652246 3.1078652246 3.0932710339 3.0932710339 
3.1078652246 3.1078652246 3.0932710339 3.0932710339 3.1078652246 3.1078652246 3.1078652246 3.0932710339 3.0932710339 
3.1078652246 3.1078652246 3.0932710339 3.0932710339 3.1078652246 3.1078652246 3.1078652246 3.0932710339 3.0932710339 
3.1078652246 3.1078652246 3.0932710339 3.0932710339 3.1078652246 3.1078652246 3.0932710339 3.0932710339 3.1078652246 
3.1078652246 3.1078652246 3.0932710339 3.0932710339 3.1078652246 3.1078652246 3.0932710339 3.0932710339 3.1078652246 
3.1078652246 3.0932710339 3.0932710339 3.1078652246 3.1224594153 3.1224594153 3.1224594153 3.1078652246 3.0932710339 
3.0932710339 3.0932710339 3.1078652246 3.1224594153 3.1224594153 3.1224594153 3.1224594153 3.1078652246 3.0932710339 
3.0932710339 3.1078652246 3.1078652246 3.1224594153 3.1224594153 3.1224594153 3.1224594153 3.1224594153 3.1078652246 
3.1078652246 3.0932710339 3.0932710339 3.1078652246 3.1224594153 3.1224594153 3.1224594153 3.1224594153 3.1078652246 
3.0932710339 3.0932710339 3.1078652246 3.1224594153 3.1224594153 3.1224594153 3.1078652246 3.0932710339 3.0932710339 
3.0932710339 3.1078652246 3.1224594153 3.1224594153 3.1224594153 3.1078652246 3.0932710339 3.0932710339 3.1078652246 
3.1078652246 3.1224594153 3.1224594153 3.1078652246 3.0932710339 3.0932710339 3.0786768432 3.0786768432 3.0786768432 
3.0786768432 3.0786768432 3.0786768432 3.0786768432 3.0786768432 3.0786768432 3.0786768432 3.0932710339 3.0932710339 
3.1078652246 3.1224594153 3.1224594153 3.1224594153 3.1078652246 3.1078652246 3.0932710339 3.0786768432 3.0786768432 
3.0786768432 3.0786768432 3.0786768432 3.0786768432 3.0786768432 3.0786768432 3.0786768432 3.0786768432 3.0786768432 
3.0932710339 3.1078652246 3.1224594153 3.1224594153 3.1224594153 3.1078652246 3.0932710339 3.0786768432 3.0786768432 
3.0786768432 3.0786768432 3.0786768432 3.0786768432 3.0932710339 3.1078652246 3.1224594153 3.1224594153 3.1078652246 
3.0932710339 3.0786768432 3.0786768432 3.0786768432 3.0786768432 3.0786768432 3.0786768432 3.0786768432 3.0932710339 
3.1078652246 3.1224594153 3.1224594153 3.1224594153 3.1224594153 3.1078652246 3.0932710339 3.0786768432 3.0786768432 
3.0786768432 3.0786768432 3.0786768432 3.0932710339 3.1078652246 3.1224594153 3.1224594153 3.1078652246 3.0932710339 
3.0786768432 3.0786768432 3.0786768432 3.0786768432 3.0786768432 3.0786768432 3.0932710339 3.1078652246 3.1224594153 
3.1224594153 3.1078652246 3.1078652246 3.0932710339 3.0786768432 3.0786768432 3.0786768432 3.0786768432 3.0786768432 
3.0932710339 3.1078652246 3.1224594153 3.1224594153 3.1224594153 3.1078652246 3.0932710339 3.0786768432 3.0786768432 
3.0786768432 3.0786768432 3.0786768432 3.0786768432 3.0932710339 3.1078652246 3.1224594153 3.1224594153 3.1224594153 
3.1078652246 3.0932710339 3.0786768432 3.0786768432 3.0786768432 3.0786768432 3.0786768432 3.0932710339 3.1078652246 
3.1224594153 3.137053606 3.137053606 3.137053606 3.1224594153 3.1078652246 3.0932710339 3.0786768432 3.0786768432 
3.0786768432 3.0786768432 3.0786768432 3.0786768432 3.0786768432 3.0932710339 3.1078652246 3.1224594153 3.137053606 
3.137053606 3.137053606 3.137053606 3.1224594153 3.1224594153 3.1078652246 3.0932710339 3.0786768432 3.0786768432 
3.0786768432 3.0786768432 3.0786768432 3.0932710339 3.1078652246 3.1224594153 3.137053606 3.137053606 3.137053606 
3.137053606 3.137053606 3.1224594153 3.1078652246 3.1078652246 3.0932710339 3.0786768432 3.0786768432 3.0786768432 
3.0786768432 3.0786768432 3.0786768432 3.0932710339 3.0932710339 3.1078652246 3.1224594153 3.1224594153 3.137053606 
3.137053606 3.1224594153 3.1078652246 3.0932710339 3.0786768432 3.0786768432 3.0786768432 3.0786768432 3.0786768432 
3.0932710339 3.1078652246 3.1078652246 3.1224594153 3.137053606 3.137053606 3.137053606 3.1224594153 3.1078652246 
3.0932710339 3.0786768432 3.0786768432 3.0786768432 3.0786768432 3.0786768432 3.0932710339 3.1078652246 3.1224594153 
3.137053606 3.137053606 3.137053606 3.137053606 3.1224594153 3.1224594153 3.1078652246 3.0932710339 3.0786768432 
3.0786768432 3.0786768432 3.0786768432 3.0786768432 3.0932710339 3.1078652246 3.1224594153 3.137053606 3.137053606 
3.1224594153 3.1078652246 3.0932710339 3.0786768432 3.0786768432 3.0786768432 3.0786768432 3.0786768432 3.0932710339 
3.1078652246 3.1224594153 3.137053606 3.137053606 3.137053606 3.1224594153 3.1078652246 3.0932710339 3.0786768432 
3.0786768432 3.0786768432 3.0786768432 3.0786768432 3.0932710339 3.1078652246 3.1224594153 3.1224594153 3.137053606 
3.137053606 3.1224594153 3.1078652246 3.0932710339 3.0786768432 3.0786768432 3.0786768432 3.0786768432 3.0786768432 
3.0786768432 3.0932710339 3.1078652246 3.1224594153 3.137053606 3.137053606 3.137053606 3.1224594153 3.1078652246 
3.0932710339 3.0786768432 3.0786768432 3.0786768432 3.0786768432 3.0932710339 3.1078652246 3.1224594153 3.137053606 
3.137053606 3.1224594153 3.1224594153 3.1078652246 3.1078652246 3.0932710339 3.0786768432 3.0786768432 3.0786768432 
3.0786768432 3.0932710339 3.1078652246 3.1224594153 3.137053606 3.137053606 3.137053606 3.137053606 3.1224594153 
3.1078652246 3.0932710339 3.0786768432 3.0786768432 3.0786768432 3.0786768432 3.0786768432 3.0932710339 3.1078652246 
3.1224594153 3.137053606 3.1516477967 3.1516477967 3.1516477967 3.1516477967 3.1516477967 3.1516477967 3.137053606 
3.1224594153 3.1078652246 3.0932710339 3.0786768432 3.0786768432 3.0786768432 3.0786768432 3.0786768432 3.0932710339 
3.1078652246 3.1078652246 3.1224594153 3.1224594153 3.137053606 3.1516477967 3.1516477967 3.1516477967 3.137053606 
3.1224594153 3.1078652246 3.0932710339 3.0786768432 3.0786768432 3.0786768432 3.0786768432 3.0640826525 3.0640826525 
3.0640826525 3.0640826525 3.0640826525 3.0786768432 3.0932710339 3.1078652246 3.1224594153 3.137053606 3.137053606 
3.1516477967 3.1516477967 3.1516477967 3.137053606 3.1224594153 3.1078652246 3.0932710339 3.0786768432 3.0786768432 
3.0786768432 3.0786768432 3.0640826525 3.0640826525 3.0640826525 3.0640826525 3.0640826525 3.0640826525 3.0786768432 
3.0932710339 3.1078652246 3.1224594153 3.137053606 3.1516477967 3.1516477967 3.1516477967 3.137053606 3.1224594153 
3.1078652246 3.0932710339 3.0786768432 3.0786768432 3.0786768432 3.0640826525 3.0640826525 3.0640826525 3.0786768432 
3.0932710339 3.1078652246 3.1224594153 3.137053606 3.1516477967 3.1516477967 3.1516477967 3.1516477967 3.137053606 
3.137053606 3.1224594153 3.1078652246 3.0932710339 3.0786768432 3.0786768432 3.0786768432 3.0640826525 3.0640826525 
3.0640826525 3.0786768432 3.0932710339 3.1078652246 3.1224594153 3.137053606 3.137053606 3.1516477967 3.1516477967 
3.137053606 3.1224594153 3.1078652246 3.0932710339 3.0786768432 3.0786768432 3.0786768432 3.0786768432 3.0640826525 
3.0640826525 3.0786768432 3.0932710339 3.1078652246 3.1224594153 3.1224594153 3.137053606 3.1516477967 3.1516477967 
3.1516477967 3.137053606 3.1224594153 3.1078652246 3.0932710339 3.0786768432 3.0786768432 3.0786768432 3.0786768432 
3.0640826525 3.0640826525 3.0640826525 3.0786768432 3.0932710339 3.1078652246 3.1224594153 3.137053606 3.1516477967 
3.1516477967 3.137053606 3.1224594153 3.1078652246 3.0932710339 3.0786768432 3.0786768432 3.0786768432 3.0640826525 
3.0640826525 3.0786768432 3.0786768432 3.0932710339 3.1078652246 3.1224594153 3.137053606 3.137053606 3.1516477967 
3.1516477967 3.1516477967 3.137053606 3.1224594153 3.1224594153 3.1078652246 3.0932710339 3.0786768432 3.0786768432 
3.0786768432 3.0786768432 3.0786768432 3.0786768432 3.0786768432 3.0786768432 3.0786768432 3.0786768432 3.0640826525 
3.0640826525 3.0786768432 3.0932710339 3.1078652246 3.1224594153 3.137053606 3.1516477967 3.1516477967 3.137053606 
3.1224594153 3.1078652246 3.0932710339 3.0786768432 3.0786768432 3.0786768432 3.0786768432 3.0786768432 3.0640826525 
3.0640826525 3.0494884618 3.0494884618 3.0494884618 3.0494884618 3.0494884618 3.0494884618 3.0640826525 3.0640826525 
3.0786768432 3.0932710339 3.1078652246 3.1224594153 3.137053606 3.1516477967 3.1662419875 3.1662419875 3.1662419875 
3.1516477967 3.137053606 3.1224594153 3.1224594153 3.1078652246 3.0932710339 3.0786768432 3.0786768432 3.0786768432 
3.0640826525 3.0494884618 3.0494884618 3.0494884618 3.0640826525 3.0786768432 3.0932710339 3.1078652246 3.1078652246 
3.1224594153 3.1224594153 3.137053606 3.1516477967 3.1516477967 3.1662419875 3.1662419875 3.1662419875 3.1662419875 
3.1662419875 3.1516477967 3.137053606 3.1224594153 3.1078652246 3.1078652246 3.0932710339 3.0932710339 3.0786768432 
3.0640826525 3.0640826525 3.0640826525 3.0640826525 3.0640826525 3.0786768432 3.0786768432 3.0786768432 3.0640826525 
3.0494884618 3.0494884618 3.0494884618 3.0640826525 3.0786768432 3.0932710339 3.0932710339 3.1078652246 3.1224594153 
3.137053606 3.137053606 3.1516477967 3.1662419875 3.1662419875 3.1662419875 3.1516477967 3.137053606 3.1224594153 
3.1078652246 3.0932710339 3.0786768432 3.0786768432 3.0640826525 3.0640826525 3.0640826525 3.0786768432 3.0786768432 
3.0640826525 3.0494884618 3.0494884618 3.0640826525 3.0786768432 3.0932710339 3.1078652246 3.1224594153 3.137053606 
3.1516477967 3.1662419875 3.1662419875 3.1662419875 3.1516477967 3.137053606 3.1224594153 3.1078652246 3.0932710339 
3.0786768432 3.0640826525 3.0640826525 3.0640826525 3.0786768432 3.0786768432 3.0786768432 3.0786768432 3.0640826525 
3.0494884618 3.0348942711 3.0348942711 3.0348942711 3.0348942711 3.0348942711 3.0494884618 3.0494884618 3.0640826525 
3.0786768432 3.0932710339 3.1078652246 3.1224594153 3.137053606 3.1516477967 3.1516477967 2.9473291268 2.9473291268 
2.9619233175 2.9619233175 2.9765175082 2.9765175082 2.991111699 2.991111699 3.0057058897 3.0057058897 3.0203000804 
3.0203000804 3.0348942711 3.0348942711 3.0494884618 3.0494884618 3.0640826525 3.0640826525 3.0786768432 3.0786768432 
3.0932710339 3.0932710339 3.1078652246 3.1078652246 3.1224594153 3.1224594153 3.137053606 3.137053606 3.1516477967 
3.1516477967 2.9473291268 2.9619233175 2.9765175082 2.991111699 3.0057058897 3.0203000804 3.0348942711 3.0494884618 
3.0640826525 3.0786768432 3.0932710339 3.1078652246 3.1224594153 3.137053606 3.1516477967 2.9473291268 2.9619233175 
2.9765175082 2.991111699 3.0057058897 3.0203000804 3.0348942711 3.0494884618 3.0640826525 3.0786768432 3.0932710339 
3.1078652246 3.1224594153 3.137053606 3.1516477967 2.9473291268 2.9619233175 2.9765175082 2.991111699 3.0057058897 
3.0203000804 3.0348942711 3.0494884618 3.0640826525 3.0786768432 3.0932710339 3.1078652246 3.1224594153 3.137053606 
3.1516477967 3.1662419875 2.9473291268 2.9619233175 2.9765175082 2.991111699 3.0057058897 3.0203000804 3.0348942711 
3.0494884618 3.0640826525 3.0786768432 3.0932710339 3.1078652246 3.1224594153 3.137053606 3.1516477967 3.1662419875 
2.9473291268 2.9619233175 2.9765175082 2.991111699 3.0057058897 3.0203000804 3.0348942711 3.0494884618 3.0640826525 
3.0786768432 3.0932710339 3.1078652246 3.1224594153 3.137053606 3.1516477967 3.1662419875 2.9473291268 2.9619233175 
2.9765175082 2.991111699 3.0057058897 3.0203000804 3.0348942711 3.0494884618 3.0640826525 3.0786768432 3.0932710339 
3.1078652246 3.1224594153 3.137053606 3.1516477967 3.1662419875 2.9473291268 2.9619233175 2.9765175082 2.991111699 
3.0057058897 3.0203000804 3.0348942711 3.0494884618 3.0640826525 3.0786768432 3.0932710339 3.1078652246 3.1224594153 
3.137053606 3.1516477967 3.1662419875 2.9473291268 2.9619233175 2.9765175082 2.991111699 3.0057058897 3.0203000804 
3.0348942711 3.0494884618 3.0640826525 3.0786768432 3.0932710339 3.1078652246 3.1224594153 3.137053606 3.1516477967 
3.1662419875 2.9473291268 2.9619233175 2.9765175082 2.991111699 3.0057058897 3.0203000804 3.0348942711 3.0494884618 
3.0640826525 3.0786768432 3.0932710339 3.1078652246 3.1224594153 3.137053606 3.1516477967 2.9473291268 2.9619233175 
2.9765175082 2.991111699 3.0057058897 3.0203000804 3.0348942711 3.0494884618 3.0640826525 3.0786768432 3.0932710339 
3.1078652246 3.1224594153 3.137053606 3.1516477967 2.9473291268 2.9619233175 2.9765175082 2.991111699 3.0057058897 
3.0203000804 3.0348942711 3.0494884618 3.0640826525 3.0786768432 3.0932710339 3.1078652246 3.1224594153 3.137053606 
3.1516477967 2.9473291268 2.9619233175 2.9765175082 2.991111699 3.0057058897 3.0203000804 3.0348942711 3.0494884618 
3.0640826525 3.0786768432 3.0932710339 3.1078652246 3.1224594153 3.137053606 2.9473291268 2.9619233175 2.9765175082 
2.991111699 3.0057058897 3.0203000804 3.0348942711 3.0494884618 3.0640826525 3.0786768432 3.0932710339 3.1078652246 
3.1224594153 3.137053606 2.9473291268 2.9619233175 2.9765175082 2.991111699 3.0057058897 3.0203000804 3.0348942711 
3.0494884618 3.0640826525 3.0786768432 3.0932710339 3.1078652246 3.1224594153 3.137053606 2.9473291268 2.9619233175 
2.9765175082 2.991111699 3.0057058897 3.0203000804 3.0348942711 3.0494884618 3.0640826525 3.0786768432 3.0932710339 
3.1078652246 3.1224594153 3.137053606 2.9473291268 2.9619233175 2.9765175082 2.991111699 3.0057058897 3.0203000804 
3.0348942711 3.0494884618 3.0640826525 3.0786768432 3.0932710339 3.1078652246 3.1224594153 3.1224594153 3.1078652246 
3.0932710339 3.0786768432 3.0640826525 3.0640826525 3.0640826525 3.0786768432 3.0786768432 3.0640826525 3.0494884618 
3.0348942711 3.0348942711 3.0494884618 3.0640826525 3.0786768432 3.0932710339 3.1078652246 2.9473291268 2.9473291268 
2.9619233175 2.9619233175 2.9765175082 2.9765175082 2.991111699 2.991111699 3.0057058897 3.0057058897 3.0203000804 
3.0203000804 3.0348942711 3.0348942711 3.0494884618 3.0494884618 3.0640826525 3.0640826525 3.0786768432 3.0786768432 
3.0932710339 3.0932710339 3.1078652246 3.1078652246 3.1224594153 2.9473291268 2.9619233175 2.9765175082 2.991111699 
3.0057058897 3.0203000804 3.0348942711 3.0494884618 3.0640826525 3.0786768432 3.0932710339 3.1078652246 3.1224594153 
3.137053606 2.9473291268 2.9619233175 2.9765175082 2.991111699 3.0057058897 3.0203000804 3.0348942711 3.0494884618 
3.0640826525 3.0786768432 3.0932710339 3.1078652246 3.1224594153 3.137053606 3.1516477967 2.9473291268 2.9619233175 
2.9765175082 2.991111699 3.0057058897 3.0203000804 3.0348942711 3.0494884618 3.0640826525 3.0786768432 3.0932710339 