# vtk DataFile Version 4.2
vtk output
ASCII
DATASET POLYDATA
POINTS 7389 float
1579.37 -3179.14 0 1590.86 -3189.5 0 1612.85 -3179.14 0 
1564.41 -3162.14 0 1627.86 -3172.08 0 1648.96 -3162.14 0 
1552.85 -3145.14 0 1553.86 -3146.79 0 1664.86 -3154.66 0 
1685.08 -3145.14 0 1542.45 -3128.14 0 1701.86 -3137.24 0 
1721.19 -3128.14 0 1532.04 -3111.14 0 1738.86 -3119.82 0 
1757.3 -3111.14 0 1521.64 -3094.14 0 1775.87 -3102.4 0 
1793.42 -3094.13 0 1511.24 -3077.14 0 1516.86 -3086.33 0 
1812.87 -3084.98 0 1829.53 -3077.13 0 1500.83 -3060.14 0 
1849.87 -3067.56 0 1865.64 -3060.13 0 1490.43 -3043.14 0 
1886.87 -3050.14 0 1901.76 -3043.13 0 1480.03 -3026.14 0 
1923.87 -3032.72 0 1942.23 -3026.13 0 1469.62 -3009.14 0 
1479.86 -3025.87 0 1960.88 -3022.2 0 1997.88 -3017.53 0 
2034.88 -3012.86 0 2064.51 -3009.12 0 1459.22 -2992.14 0 
2071.88 -3008.19 0 2108.88 -3003.52 0 2145.88 -2998.85 0 
2182.88 -2994.18 0 2199.23 -2992.12 0 1448.82 -2975.14 0 
2219.88 -2989.51 0 2256.89 -2984.84 0 2273.55 -2975.11 0 
1438.42 -2958.14 0 1442.86 -2965.41 0 2286.82 -2958.11 0 
1428.01 -2941.13 0 2293.26 -2941.11 0 1417.61 -2924.13 0 
2293.89 -2938.8 0 2296.92 -2924.11 0 1390.25 -2907.13 0 
1405.87 -2916.73 0 2300.43 -2907.11 0 1346.53 -2890.13 0 
1368.87 -2898.82 0 2303.94 -2890.11 0 1302.81 -2873.13 0 
1331.87 -2884.43 0 2307.45 -2873.11 0 1259.09 -2856.13 0 
1294.87 -2870.04 0 2310.96 -2856.11 0 1215.37 -2839.13 0 
1220.87 -2841.27 0 1257.87 -2855.66 0 2314.46 -2839.1 0 
1171.65 -2822.13 0 1183.87 -2826.88 0 2317.97 -2822.1 0 
1127.93 -2805.13 0 1146.87 -2812.5 0 2321.48 -2805.1 0 
1084.21 -2788.13 0 1109.87 -2798.11 0 2324.99 -2788.1 0 
1046.79 -2771.13 0 1072.87 -2783.72 0 2328.5 -2771.1 0 
1022.21 -2754.13 0 1035.87 -2764.75 0 2330.9 -2759.47 0 
2332.01 -2754.1 0 1000.33 -2737.13 0 2335.52 -2737.1 0 
978.451 -2720.13 0 998.866 -2736 0 2339.03 -2720.1 0 
959.926 -2703.13 0 961.867 -2707.25 0 2342.54 -2703.1 0 
952.031 -2686.13 0 2346.04 -2686.09 0 944.333 -2669.13 0 
2349.55 -2669.09 0 936.823 -2652.13 0 2353.06 -2652.09 0 
929.496 -2635.13 0 2356.57 -2635.09 0 922.626 -2618.13 0 
924.871 -2624.18 0 2360.08 -2618.09 0 916.323 -2601.13 0 
2363.59 -2601.09 0 910.019 -2584.13 0 2367.1 -2584.09 0 
903.715 -2567.13 0 2367.91 -2580.14 0 2370.61 -2567.09 0 
897.412 -2550.13 0 2374.11 -2550.09 0 891.108 -2533.13 0 
2377.62 -2533.08 0 884.804 -2516.12 0 887.875 -2524.41 0 
2381.13 -2516.08 0 878.501 -2499.12 0 2384.64 -2499.08 0 
872.197 -2482.12 0 2388.15 -2482.08 0 865.893 -2465.12 0 
2391.66 -2465.08 0 859.59 -2448.12 0 2395.17 -2448.08 0 
853.286 -2431.12 0 2398.68 -2431.08 0 846.982 -2414.12 0 
850.88 -2424.63 0 2402.19 -2414.08 0 840.678 -2397.12 0 
2404.92 -2400.81 0 2405.69 -2397.08 0 834.375 -2380.12 0 
2409.2 -2380.07 0 828.071 -2363.12 0 2412.71 -2363.07 0 
821.767 -2346.12 0 2416.22 -2346.07 0 815.464 -2329.11 0 
2419.73 -2329.07 0 809.16 -2312.11 0 813.885 -2324.86 0 
2423.24 -2312.07 0 802.856 -2295.11 0 2426.75 -2295.07 0 
796.553 -2278.11 0 2430.26 -2278.07 0 790.249 -2261.11 0 
2433.77 -2261.07 0 783.945 -2244.11 0 2437.27 -2244.07 0 
777.642 -2227.11 0 2440.87 -2227.06 0 771.338 -2210.11 0 
776.89 -2225.08 0 2441.94 -2225.52 0 2452.21 -2210.06 0 
765.034 -2193.11 0 2464.81 -2193.06 0 758.731 -2176.11 0 
2477.42 -2176.06 0 752.427 -2159.11 0 2478.94 -2174.01 0 
2490.02 -2159.06 0 749.008 -2142.11 0 2502.62 -2142.06 0 
746.756 -2125.1 0 2515.23 -2125.06 0 744.575 -2108.1 0 
2515.94 -2124.09 0 2524.71 -2108.06 0 742.394 -2091.1 0 
2529.93 -2091.05 0 740.213 -2074.1 0 2532.47 -2074.05 0 
738.032 -2057.1 0 739.898 -2071.65 0 2531.49 -2057.05 0 
735.851 -2040.1 0 2530.51 -2040.05 0 733.67 -2023.1 0 
2529.52 -2023.05 0 731.489 -2006.1 0 2528.54 -2006.05 0 
729.308 -1989.1 0 2527.55 -1989.05 0 727.127 -1972.1 0 
2526.57 -1972.05 0 724.945 -1955.1 0 2525.59 -1955.05 0 
722.764 -1938.09 0 2524.6 -1938.05 0 720.583 -1921.09 0 
2523.62 -1921.04 0 718.402 -1904.09 0 2522.64 -1904.04 0 
716.221 -1887.09 0 2521.65 -1887.04 0 714.04 -1870.09 0 
2520.67 -1870.04 0 711.859 -1853.09 0 2519.68 -1853.04 0 
709.678 -1836.09 0 2518.7 -1836.04 0 707.497 -1819.09 0 
2517.72 -1819.04 0 705.316 -1802.09 0 2516.73 -1802.04 0 
703.135 -1785.09 0 2515.96 -1788.72 0 2515.75 -1785.04 0 
700.953 -1768.08 0 702.914 -1783.36 0 2514.77 -1768.04 0 
698.894 -1751.08 0 2513.78 -1751.04 0 696.956 -1734.08 0 
2512.8 -1734.03 0 695.126 -1717.08 0 2511.81 -1717.03 0 
690.261 -1700.08 0 2510.83 -1700.03 0 685.745 -1683.08 0 
2509.85 -1683.03 0 681.837 -1666.08 0 2508.86 -1666.03 0 
678.974 -1649.08 0 2507.88 -1649.03 0 676.406 -1632.08 0 
2506.9 -1632.03 0 -481.108 -1621.62 0 -493.715 -1615.11 0 
-444.108 -1624.77 0 -411.889 -1615.11 0 672.817 -1615.08 0 
2505.91 -1615.03 0 -518.108 -1602.52 0 -526.648 -1598.11 0 
-407.106 -1613.67 0 -370.104 -1602.57 0 -355.222 -1598.1 0 
669.228 -1598.08 0 2504.93 -1598.03 0 -555.108 -1583.42 0 
-559.581 -1581.11 0 -333.103 -1591.47 0 -298.554 -1581.1 0 
665.583 -1581.07 0 665.925 -1582.43 0 2504.28 -1581.03 0 
-592.108 -1564.32 0 -592.514 -1564.11 0 -296.101 -1580.36 0 
-259.099 -1569.26 0 -241.886 -1564.1 0 661.681 -1564.07 0 
2504.98 -1564.02 0 -625.447 -1547.11 0 -222.098 -1558.16 0 
-185.219 -1547.1 0 658.394 -1547.07 0 2506.14 -1547.02 0 
-629.108 -1545.22 0 -658.38 -1530.11 0 -185.096 -1547.06 0 
-148.094 -1535.86 0 -129.858 -1530.09 0 654.873 -1530.07 0 
2507.3 -1530.02 0 -666.108 -1526.12 0 -691.313 -1513.11 0 
-111.093 -1524.33 0 -75.9649 -1513.09 0 651.285 -1513.07 0 
2508.46 -1513.02 0 -703.108 -1507.02 0 -724.246 -1496.11 0 
-74.091 -1512.5 0 -57.2209 -1496.09 0 647.696 -1496.07 0 
1344.21 -1496.05 0 1368.95 -1498.56 0 1405.95 -1498.96 0 
1442.95 -1499.35 0 1479.95 -1499.74 0 1516.95 -1500.13 0 
1553.95 -1500.53 0 1568.36 -1496.05 0 2509.62 -1496.02 0 
-740.107 -1487.92 0 -750.435 -1479.11 0 -40.7253 -1479.09 0 
644.107 -1479.07 0 1300.79 -1479.05 0 1331.95 -1494.58 0 
1590.96 -1485.97 0 1598.94 -1479.04 0 2510.78 -1479.02 0 
-763.322 -1462.11 0 -37.0878 -1476.39 0 -27.5925 -1462.09 0 
640.519 -1462.07 0 1266.68 -1462.05 0 1294.95 -1476.14 0 
1618.55 -1462.04 0 2511.94 -1462.02 0 -775.033 -1445.11 0 
-15.8067 -1445.09 0 636.93 -1445.07 0 1241.7 -1445.05 0 
1257.95 -1457.7 0 1627.96 -1453.88 0 1638.16 -1445.04 0 
2513.09 -1445.02 0 -777.106 -1442.1 0 -786.743 -1428.11 0 
-3.36639 -1428.08 0 633.341 -1428.07 0 1217.64 -1428.05 0 
1220.95 -1431.64 0 1657.77 -1428.04 0 2514.25 -1428.02 0 
-798.454 -1411.1 0 -0.0837361 -1423.6 0 9.07389 -1411.08 0 
629.753 -1411.07 0 1201.96 -1411.05 0 1664.96 -1421.8 0 
1677.63 -1411.04 0 2515.41 -1411.02 0 -810.164 -1394.1 0 
21.5142 -1394.08 0 626.164 -1394.07 0 628.934 -1407.19 0 
1186.28 -1394.05 0 1697.31 -1394.04 0 2515.99 -1402.6 0 
2516.57 -1394.01 0 -814.104 -1388.38 0 -821.875 -1377.1 0 
33.9545 -1377.08 0 622.576 -1377.06 0 1170.61 -1377.05 0 
1183.95 -1391.52 0 1701.96 -1389.96 0 1718.62 -1377.03 0 
2517.73 -1377.01 0 -833.585 -1360.1 0 36.9202 -1373.03 0 
46.3948 -1360.08 0 618.987 -1360.06 0 1154.93 -1360.05 0 
1738.97 -1361.25 0 1740.31 -1360.03 0 2518.51 -1360.01 0 
-845.295 -1343.1 0 58.8351 -1343.08 0 615.398 -1343.06 0 
1138.16 -1343.05 0 1146.95 -1351.39 0 1755.87 -1343.03 0 
2519.08 -1343.01 0 -851.102 -1334.67 0 -857.006 -1326.1 0 
71.2754 -1326.08 0 611.81 -1326.06 0 1117.4 -1326.05 0 
1767.12 -1326.03 0 2518.54 -1326.01 0 -868.716 -1309.1 0 
73.9242 -1322.46 0 83.7157 -1309.07 0 606.449 -1309.06 0 
1093.59 -1309.05 0 1109.95 -1320.72 0 1775.63 -1309.03 0 
2515.99 -1313.18 0 2515 -1309.01 0 -880.427 -1292.1 0 
96.156 -1292.07 0 597.19 -1292.06 0 1069.75 -1292.05 0 
1072.95 -1294.33 0 1775.97 -1308.26 0 1782.59 -1292.03 0 
2511.57 -1292.01 0 -888.099 -1280.96 0 -892.137 -1275.1 0 
108.596 -1275.07 0 588.315 -1275.06 0 591.941 -1282.42 0 
1045.92 -1275.05 0 1789.52 -1275.03 0 2508.4 -1275.01 0 
-903.848 -1258.1 0 110.928 -1271.89 0 121.037 -1258.07 0 
581.066 -1258.06 0 1022.08 -1258.05 0 1035.95 -1267.94 0 
1797.21 -1258.03 0 2505.02 -1258.01 0 -915.558 -1241.1 0 
133.477 -1241.07 0 575.221 -1241.06 0 998.532 -1241.05 0 
998.954 -1241.55 0 1808.77 -1241.02 0 2501.64 -1241.01 0 
-925.097 -1227.25 0 -927.269 -1224.1 0 145.917 -1224.07 0 
571.415 -1224.06 0 984.317 -1224.05 0 1812.98 -1234.85 0 
1820.34 -1224.02 0 2498.26 -1224 0 -938.979 -1207.1 0 
147.932 -1219.39 0 150.969 -1207.07 0 567.609 -1207.06 0 
970.032 -1207.04 0 1831.91 -1207.02 0 2494.88 -1207 0 
-950.69 -1190.1 0 152.967 -1190.07 0 563.803 -1190.05 0 
956.97 -1190.04 0 961.956 -1197.47 0 1843.48 -1190.02 0 
2491.5 -1190 0 -962.095 -1173.54 0 -962.4 -1173.09 0 
154.965 -1173.06 0 559.997 -1173.05 0 945.555 -1173.04 0 
1849.98 -1180.47 0 1855.05 -1173.02 0 2488.26 -1173 0 
-974.11 -1156.09 0 156.963 -1156.06 0 556.191 -1156.05 0 
934.201 -1156.04 0 1866.62 -1156.02 0 2487.21 -1156 0 
-985.821 -1139.09 0 158.96 -1139.06 0 552.354 -1139.05 0 
554.947 -1150.5 0 924.491 -1139.04 0 924.958 -1139.95 0 
1878.19 -1139.02 0 2486.64 -1139 0 -997.734 -1122.09 0 
160.958 -1122.06 0 548.506 -1122.05 0 915.768 -1122.04 0 
1886.98 -1126.09 0 1889.31 -1122.01 0 2486.29 -1122 0 
-999.093 -1120.87 0 -1016.72 -1105.09 0 162.956 -1105.06 0 
544.664 -1105.05 0 907.044 -1105.04 0 1898.19 -1105.01 0 
2485.94 -1105 0 -1027.43 -1088.09 0 164.954 -1088.06 0 
540.828 -1088.05 0 898.32 -1088.04 0 1905.27 -1088.01 0 
2485.6 -1088 0 -1031.89 -1071.09 0 167.039 -1071.06 0 
536.999 -1071.05 0 889.596 -1071.04 0 1911.69 -1071.01 0 
2485.25 -1071 0 -1034.42 -1054.09 0 173.908 -1054.06 0 
533.176 -1054.05 0 879.113 -1054.04 0 887.961 -1068.52 0 
1918.1 -1054.01 0 2484.9 -1053.99 0 -1036.09 -1041.47 0 
-1036.77 -1037.09 0 180.821 -1037.06 0 529.359 -1037.05 0 
865.207 -1037.04 0 1923.99 -1038.38 0 1924.51 -1037.01 0 
2484.55 -1036.99 0 -1039.28 -1020.09 0 184.945 -1026.91 0 
187.734 -1020.05 0 525.548 -1020.05 0 851.047 -1020.04 0 
1930.92 -1020.01 0 2484.2 -1019.99 0 -1041.57 -1003.09 0 
194.646 -1003.05 0 521.743 -1003.04 0 836.887 -1003.04 0 
850.963 -1019.94 0 1937.33 -1003.01 0 2483.85 -1002.99 0 
[...]
POINT_DATA 7389
SCALARS Pressure double
LOOKUP_TABLE default
3.0932710339 3.0932710339 3.0932710339 3.0932710339 3.0932710339 3.0932710339 3.0932710339 3.0932710339 3.0932710339 
3.0932710339 3.0932710339 3.0932710339 3.0932710339 3.0932710339 3.0932710339 3.0932710339 3.0932710339 3.0932710339 
3.0932710339 3.0932710339 3.0932710339 3.0932710339 3.0932710339 3.0932710339 3.0932710339 3.0932710339 3.0932710339 
3.0932710339 3.0932710339 3.0932710339 3.0932710339 3.0932710339 3.0932710339 3.0932710339 3.0932710339 3.0932710339 
3.0932710339 3.0932710339 3.0932710339 3.0932710339 3.0932710339 3.0932710339 3.0932710339 3.0932710339 3.0932710339 
3.0932710339 3.0932710339 3.0932710339 3.0932710339 3.0932710339 3.0932710339 3.0932710339 3.0932710339 3.0932710339 
3.0932710339 3.0932710339 3.0932710339 3.0932710339 3.0932710339 3.0932710339 3.0932710339 3.0932710339 3.0932710339 
3.0932710339 3.0932710339 3.0932710339 3.0932710339 3.0932710339 3.0932710339 3.0932710339 3.0932710339 3.0932710339 
3.0932710339 3.0932710339 3.0932710339 3.0932710339 3.0932710339 3.0932710339 3.0932710339 3.0932710339 3.0932710339 
3.0932710339 3.0932710339 3.0932710339 3.0932710339 3.0932710339 3.0932710339 3.0932710339 3.0932710339 3.0932710339 
3.0932710339 3.0932710339 3.0932710339 3.0932710339 3.0932710339 3.0932710339 3.0932710339 3.0932710339 3.0932710339 
3.0932710339 3.0932710339 3.0932710339 3.0932710339 3.0932710339 3.0932710339 3.0932710339 3.0932710339 3.0932710339 
3.0932710339 3.0932710339 3.0932710339 3.0932710339 3.0932710339 3.0932710339 3.0932710339 3.0932710339 3.0932710339 
3.0932710339 3.0932710339 3.0932710339 3.0932710339 3.0932710339 3.0932710339 3.0932710339 3.0932710339 3.0932710339 
3.0932710339 3.0932710339 3.0932710339 3.0932710339 3.0932710339 3.0932710339 3.0932710339 3.0932710339 3.0932710339 
3.0932710339 3.0932710339 3.0932710339 3.0932710339 3.0932710339 3.0932710339 3.0932710339 3.0932710339 3.0932710339 
3.0932710339 3.0932710339 3.0932710339 3.0932710339 3.0932710339 3.0932710339 3.0932710339 3.0932710339 3.0932710339 
3.0932710339 3.0932710339 3.0932710339 3.0932710339 3.0932710339 3.0932710339 3.0932710339 3.0932710339 3.0932710339 
3.0932710339 3.0932710339 3.0932710339 3.0932710339 3.0932710339 3.0932710339 3.0932710339 3.0932710339 3.0932710339 
3.0932710339 3.0932710339 3.0932710339 3.0932710339 3.0932710339 3.0932710339 3.0932710339 3.0932710339 3.0932710339 
3.0932710339 3.0932710339 3.0932710339 3.0932710339 3.0932710339 3.0932710339 3.0932710339 3.0932710339 3.0932710339 
3.0932710339 3.0932710339 3.0932710339 3.0932710339 3.0932710339 3.0932710339 3.0932710339 3.0932710339 3.0932710339 
3.0932710339 3.0932710339 3.0932710339 3.0932710339 3.0932710339 3.0932710339 3.0932710339 3.0932710339 3.0932710339 
3.0932710339 3.0932710339 3.0932710339 3.0932710339 3.0932710339 3.0932710339 3.0932710339 3.0932710339 3.0932710339 
3.0932710339 3.0932710339 3.0932710339 3.0932710339 3.0932710339 3.0932710339 3.0932710339 3.0932710339 3.0932710339 
3.0932710339 3.0932710339 3.0932710339 3.0932710339 3.0932710339 3.0932710339 3.0932710339 3.0932710339 3.0932710339 
3.0932710339 3.0786768432 3.0786768432 3.0786768432 3.0786768432 3.0932710339 3.0932710339 3.0786768432 3.0786768432 
3.0786768432 3.0786768432 3.0786768432 3.0932710339 3.0932710339 3.0786768432 3.0786768432 3.0786768432 3.0786768432 
3.0932710339 3.0932710339 3.0932710339 3.0786768432 3.0786768432 3.0786768432 3.0786768432 3.0786768432 3.0932710339 
3.0932710339 3.0786768432 3.0786768432 3.0786768432 3.0932710339 3.0932710339 3.0786768432 3.0786768432 3.0786768432 
3.0786768432 3.0786768432 3.0932710339 3.0932710339 3.0786768432 3.0786768432 3.0786768432 3.0786768432 3.0932710339 
3.0932710339 3.0786768432 3.0786768432 3.0786768432 3.0786768432 3.0932710339 3.1078652246 3.1078652246 3.1078652246 
3.1078652246 3.1078652246 3.1078652246 3.1078652246 3.1078652246 3.0932710339 3.0786768432 3.0786768432 3.0786768432 
3.0932710339 3.1078652246 3.1078652246 3.1078652246 3.1078652246 3.0932710339 3.0786768432 3.0786768432 3.0786768432 
3.0932710339 3.1078652246 3.1078652246 3.1078652246 3.0932710339 3.0786768432 3.0786768432 3.0932710339 3.1078652246 
3.1078652246 3.1078652246 3.1078652246 3.0932710339 3.0786768432 3.0786768432 3.0786768432 3.0932710339 3.1078652246 
3.1078652246 3.1078652246 3.0932710339 3.0786768432 3.0786768432 3.0786768432 3.0932710339 3.1078652246 3.1078652246 
3.1078652246 3.0932710339 3.0786768432 3.0786768432 3.0932710339 3.0932710339 3.1078652246 3.1078652246 3.0932710339 
3.0932710339 3.0786768432 3.0786768432 3.0786768432 3.0932710339 3.1078652246 3.1078652246 3.1078652246 3.1078652246 
3.0932710339 3.0786768432 3.0786768432 3.0786768432 3.0932710339 3.1078652246 3.1078652246 3.1078652246 3.0932710339 
3.0786768432 3.0786768432 3.0932710339 3.1078652246 3.1078652246 3.1078652246 3.0932710339 3.0786768432 3.0786768432 
3.0786768432 3.0932710339 3.1078652246 3.1078652246 3.0932710339 3.0786768432 3.0786768432 3.0786768432 3.0932710339 
3.1078652246 3.1078652246 3.1078652246 3.0932710339 3.0932710339 3.0786768432 3.0786768432 3.0932710339 3.1078652246 
3.1078652246 3.1078652246 3.1078652246 3.0932710339 3.0786768432 3.0786768432 3.0786768432 3.0932710339 3.0932710339 
3.1078652246 3.1078652246 3.0932710339 3.0786768432 3.0786768432 3.0786768432 3.0932710339 3.1078652246 3.1078652246 
3.1078652246 3.0932710339 3.0786768432 3.0786768432 3.0932710339 3.1078652246 3.1078652246 3.1078652246 3.0932710339 
3.0786768432 3.0786768432 3.0786768432 3.0932710339 3.1078652246 3.1078652246 3.1078652246 3.0932710339 3.0786768432 
3.0786768432 3.0786768432 3.0932710339 3.1078652246 3.1078652246 3.0932710339 3.0786768432 3.0786768432 3.0932710339 
3.1078652246 3.1078652246 3.1078652246 3.0932710339 3.0786768432 3.0786768432 3.0786768432 3.0932710339 3.1078652246 
3.1078652246 3.1078652246 3.0932710339 3.0786768432 3.0786768432 3.0932710339 3.1078652246 3.1078652246 3.0932710339 
3.0786768432 3.0786768432 3.0932710339 3.0932710339 3.1078652246 3.1078652246 3.1078652246 3.0932710339 3.0786768432 
3.0786768432 3.0932710339 3.1078652246 3.1078652246 3.1078652246 3.0932710339 3.0786768432 3.0786768432 3.0786768432 
3.0932710339 3.1078652246 3.1078652246 3.0932710339 3.0786768432 3.0786768432 3.0932710339 3.1078652246 3.1078652246 
3.0932710339 3.0786768432 3.0786768432 3.0932710339 3.1078652246 3.1078652246 3.0932710339 3.0786768432 3.0786768432 
3.0932710339 3.1078652246 3.1078652246 3.1078652246 3.0932710339 3.0786768432 3.0786768432 3.0786768432 3.0932710339 
3.1078652246 3.1078652246 3.1078652246 3.0932710339 3.0786768432 3.0786768432 3.0786768432 3.0932710339 3.1078652246 
3.1078652246 3.0932710339 3.0786768432 3.0786768432 3.0932710339 3.1078652246 3.1078652246 3.1078652246 3.0932710339 
3.0786768432 3.0786768432 3.0932710339 3.0932710339 3.1078652246 3.1078652246 3.0932710339 3.0786768432 3.0786768432 
3.0932710339 3.1078652246 3.1078652246 3.1078652246 3.0932710339 3.0786768432 3.0786768432 3.0932710339 3.1078652246 
3.1078652246 3.0932710339 3.0786768432 3.0786768432 3.0786768432 3.0932710339 3.1078652246 3.1078652246 3.1078652246 
3.0932710339 3.0932710339 3.0786768432 3.0786768432 3.0932710339 3.1078652246 3.1078652246 3.1078652246 3.0932710339 
3.0786768432 3.0786768432 3.0932710339 3.1078652246 3.1078652246 3.0932710339 3.0786768432 3.0786768432 3.0932710339 
3.1078652246 3.1078652246 3.0932710339 3.0786768432 3.0786768432 3.0932710339 3.1078652246 3.1078652246 3.0932710339 
3.0786768432 3.0786768432 3.0932710339 3.0932710339 3.1078652246 3.1078652246 3.1224594153 3.1224594153 3.1224594153 
3.1224594153 3.1224594153 3.1224594153 3.1078652246 3.0932710339 3.0786768432 3.0786768432 3.0786768432 3.0932710339 
3.1078652246 3.1224594153 3.1224594153 3.1224594153 3.1224594153 3.1224594153 3.1078652246 3.1078652246 3.0932710339 
3.0786768432 3.0786768432 3.0786768432 3.0932710339 3.1078652246 3.1224594153 3.1224594153 3.1224594153 3.1224594153 
3.1224594153 3.1078652246 3.0932710339 3.0786768432 3.0786768432 3.0932710339 3.1078652246 3.1224594153 3.1224594153 
3.1224594153 3.1224594153 3.1078652246 3.0932710339 3.0786768432 3.0786768432 3.0786768432 3.0786768432 3.0786768432 
3.0932710339 3.1078652246 3.1078652246 3.1224594153 3.1224594153 3.1078652246 3.0932710339 3.0786768432 3.0786768432 
3.0786768432 3.0786768432 3.0786768432 3.0786768432 3.0932710339 3.1078652246 3.1224594153 3.1224594153 3.1224594153 
3.1078652246 3.0932710339 3.0786768432 3.0786768432 3.0786768432 3.0786768432 3.0786768432 3.0786768432 3.0640826525 
3.0640826525 3.0640826525 3.0640826525 3.0640826525 3.0640826525 3.0640826525 3.0786768432 3.0932710339 3.1078652246 
3.1224594153 3.1224594153 3.1224594153 3.1224594153 3.1078652246 3.0932710339 3.0786768432 3.0786768432 3.0786768432 
3.0786768432 3.0786768432 3.0640826525 3.0640826525 3.0640826525 3.0640826525 3.0786768432 3.0932710339 3.1078652246 
3.1078652246 3.1224594153 3.1224594153 3.1078652246 3.0932710339 3.0786768432 3.0786768432 3.0786768432 3.0786768432 
3.0786768432 3.0786768432 3.0640826525 3.0640826525 3.0640826525 3.0786768432 3.0932710339 3.1078652246 3.1224594153 
3.1224594153 3.1224594153 3.1224594153 3.1078652246 3.1078652246 3.0932710339 3.0786768432 3.0786768432 3.0786768432 
3.0786768432 3.0786768432 3.0640826525 3.0640826525 3.0640826525 3.0640826525 3.0786768432 3.0932710339 3.0932710339 
3.1078652246 3.1224594153 3.1224594153 3.1224594153 3.1078652246 3.0932710339 3.0786768432 3.0786768432 3.0786768432 
3.0786768432 3.0640826525 3.0640826525 3.0786768432 3.0932710339 3.1078652246 3.1224594153 3.1224594153 3.1078652246 
3.0932710339 3.0786768432 3.0786768432 3.0786768432 3.0786768432 3.0640826525 3.0640826525 3.0640826525 3.0640826525 
3.0786768432 3.0932710339 3.1078652246 3.1078652246 3.1224594153 3.1224594153 3.1224594153 3.1224594153 3.1078652246 
3.0932710339 3.0786768432 3.0786768432 3.0786768432 3.0786768432 3.0640826525 3.0640826525 3.0786768432 3.0932710339 
3.1078652246 3.1224594153 3.1224594153 3.1078652246 3.0932710339 3.0786768432 3.0786768432 3.0786768432 3.0786768432 
3.0786768432 3.0640826525 3.0640826525 3.0640826525 3.0786768432 3.0932710339 3.1078652246 3.1224594153 3.1224594153 
3.1224594153 3.1078652246 3.0932710339 3.0786768432 3.0786768432 3.0786768432 3.0786768432 3.0640826525 3.0640826525 
3.0640826525 3.0786768432 3.0932710339 3.1078652246 3.1224594153 3.1224594153 3.1078652246 3.0932710339 3.0786768432 
3.0786768432 3.0786768432 3.0640826525 3.0640826525 3.0640826525 3.0786768432 3.0932710339 3.1078652246 3.1224594153 
3.1224594153 3.1224594153 3.1224594153 3.1078652246 3.0932710339 3.0786768432 3.0786768432 3.0786768432 3.0640826525 
3.0640826525 3.0640826525 3.0786768432 3.0932710339 3.1078652246 3.1078652246 3.1224594153 3.1224594153 3.1078652246 
3.1078652246 3.0932710339 3.0786768432 3.0786768432 3.0786768432 3.0786768432 3.0640826525 3.0640826525 3.0786768432 
3.0932710339 3.0932710339 3.1078652246 3.1224594153 3.1224594153 3.1078652246 3.0932710339 3.0786768432 3.0786768432 
3.0786768432 3.0786768432 3.0640826525 3.0640826525 3.0786768432 3.0932710339 3.1078652246 3.1224594153 3.1224594153 
3.1224594153 3.1224594153 3.1078652246 3.0932710339 3.0786768432 3.0786768432 3.0786768432 3.0786768432 3.0640826525 
3.0640826525 3.0786768432 3.0932710339 3.1078652246 3.1078652246 3.1224594153 3.1224594153 3.1078652246 3.0932710339 
3.0786768432 3.0786768432 3.0786768432 3.0640826525 3.0640826525 3.0786768432 3.0932710339 3.1078652246 3.1224594153 
3.1224594153 3.1224594153 3.1078652246 3.0932710339 3.0786768432 3.0786768432 3.0786768432 3.0786768432 3.0640826525 
3.0640826525 3.0640826525 3.0640826525 3.0786768432 3.0932710339 3.1078652246 3.1224594153 3.137053606 3.137053606 
3.137053606 3.1224594153 3.1078652246 3.0932710339 3.0786768432 3.0786768432 3.0786768432 3.0640826525 3.0640826525 
3.0786768432 3.0932710339 3.1078652246 3.1224594153 3.1224594153 3.137053606 3.137053606 3.137053606 3.137053606 
3.1224594153 3.1078652246 3.0932710339 3.0786768432 3.0786768432 3.0786768432 3.0786768432 3.0640826525 3.0640826525 
3.0786768432 3.0932710339 3.1078652246 3.1078652246 3.1224594153 3.137053606 3.137053606 3.137053606 3.137053606 
3.1224594153 3.1224594153 3.1078652246 3.0932710339 3.0786768432 3.0786768432 3.0786768432 3.0640826525 3.0494884618 
3.0494884618 3.0494884618 3.0640826525 3.0786768432 3.0932710339 3.0932710339 3.1078652246 3.1224594153 3.137053606 
3.137053606 3.137053606 3.137053606 3.1224594153 3.1078652246 3.0932710339 3.0786768432 3.0786768432 3.0786768432 
3.0786768432 3.0640826525 3.0494884618 3.0494884618 3.0494884618 3.0494884618 3.0494884618 3.0640826525 3.0786768432 
3.0932710339 3.1078652246 3.1224594153 3.1224594153 3.137053606 3.137053606 3.1224594153 3.1078652246 3.0932710339 
3.0932710339 3.0786768432 3.0786768432 3.0786768432 3.0640826525 3.0640826525 3.0494884618 3.0494884618 3.0494884618 
3.0640826525 3.0786768432 3.0932710339 3.1078652246 3.1224594153 3.137053606 3.137053606 3.137053606 3.1224594153 
3.1078652246 3.0932710339 3.0786768432 3.0786768432 3.0786768432 3.0640826525 3.0494884618 3.0494884618 3.0494884618 
3.0494884618 3.0640826525 3.0786768432 3.0932710339 3.1078652246 3.1078652246 3.1224594153 3.1224594153 3.137053606 
3.137053606 3.137053606 3.137053606 3.1224594153 3.1078652246 3.0932710339 3.0786768432 3.0786768432 3.0786768432 
3.0786768432 3.0640826525 3.0494884618 3.0494884618 3.0640826525 3.0786768432 3.0932710339 3.1078652246 3.1224594153 
3.137053606 3.137053606 3.1224594153 3.1078652246 3.0932710339 3.0786768432 3.0786768432 3.0786768432 3.0786768432 
3.0640826525 3.0494884618 3.0494884618 3.0494884618 3.0640826525 3.0786768432 3.0932710339 3.0932710339 3.1078652246 
3.1224594153 3.137053606 3.137053606 3.137053606 3.137053606 3.1224594153 3.1078652246 3.0932710339 3.0786768432 
3.0786768432 3.0786768432 3.0640826525 3.0494884618 3.0494884618 3.0494884618 3.0640826525 3.0786768432 3.0932710339 
3.1078652246 3.1078652246 3.1224594153 3.137053606 3.137053606 3.1224594153 3.1078652246 3.0932710339 3.0786768432 
3.0786768432 3.0786768432 3.0640826525 3.0494884618 3.0494884618 3.0494884618 3.0640826525 3.0786768432 3.0932710339 
3.1078652246 3.1224594153 3.1224594153 3.137053606 3.137053606 3.137053606 3.1224594153 3.1078652246 3.0932710339 
3.0786768432 3.0786768432 3.0786768432 3.0786768432 3.0640826525 3.0494884618 3.0494884618 3.0640826525 3.0786768432 
3.0932710339 3.1078652246 3.1224594153 3.137053606 3.137053606 3.1224594153 3.1078652246 3.0932710339 3.0786768432 
3.0786768432 3.0786768432 3.0786768432 3.0786768432 3.0640826525 3.0494884618 3.0494884618 3.0494884618 3.0640826525 
3.0786768432 3.0932710339 3.1078652246 3.1224594153 3.137053606 3.137053606 3.137053606 3.1224594153 3.1078652246 
3.0932710339 3.0786768432 3.0786768432 3.0786768432 3.0786768432 3.0640826525 3.0640826525 3.0494884618 3.0494884618 
3.0640826525 3.0786768432 3.0932710339 3.1078652246 3.1078652246 3.1224594153 3.137053606 3.137053606 3.137053606 
3.1224594153 3.1078652246 3.0932710339 3.0786768432 3.0786768432 3.0786768432 3.0786768432 3.0786768432 3.0640826525 
3.0494884618 3.0348942711 3.0348942711 3.0348942711 3.0348942711 3.0494884618 3.0640826525 3.0786768432 3.0786768432 
3.0932710339 3.0932710339 3.1078652246 3.1224594153 3.1224594153 3.137053606 3.137053606 3.137053606 3.1224594153 
3.1078652246 3.0932710339 3.0786768432 3.0640826525 3.0640826525 3.0640826525 3.0640826525 3.0786768432 3.0786768432 
3.0786768432 3.0786768432 3.0640826525 3.0494884618 3.0348942711 3.0348942711 3.0348942711 3.0348942711 3.0494884618 
3.0494884618 3.0640826525 3.0786768432 3.0932710339 3.1078652246 3.1224594153 3.137053606 3.137053606 3.1224594153 
3.1078652246 3.0932710339 3.0786768432 3.0640826525 3.0640826525 3.0640826525 3.0640826525 3.0786768432 3.0786768432 
3.0786768432 3.0786768432 3.0786768432 3.0786768432 3.0640826525 3.0494884618 3.0348942711 3.0348942711 3.0348942711 
3.0348942711 3.0494884618 3.0640826525 3.0640826525 3.0786768432 3.0932710339 3.1078652246 3.1224594153 3.137053606 
3.137053606 3.1224594153 3.1078652246 3.0932710339 3.0932710339 3.0786768432 3.0786768432 3.0640826525 3.0640826525 
3.0640826525 3.0786768432 3.0786768432 3.0786768432 3.0786768432 3.0640826525 3.0494884618 3.0348942711 3.0348942711 
3.0494884618 3.0640826525 3.0786768432 3.0932710339 3.1078652246 3.1224594153 3.137053606 3.137053606 3.137053606 
3.1224594153 3.1078652246 3.0932710339 3.0786768432 3.0640826525 3.0640826525 3.0640826525 3.0640826525 3.0786768432 
3.0786768432 3.0640826525 3.0494884618 3.0348942711 3.0348942711 3.0348942711 3.0494884618 3.0640826525 3.0640826525 
3.0786768432 3.0932710339 3.1078652246 3.1078652246 3.1224594153 3.137053606 3.137053606 3.1224594153 3.1078652246 
3.0932710339 3.0786768432 3.0640826525 3.0640826525 3.0640826525 3.0786768432 3.0786768432 3.0786768432 3.0640826525 
3.0494884618 3.0494884618 3.0348942711 3.0203000804 3.0203000804 3.0203000804 3.0203000804 3.0348942711 3.0348942711 
3.0494884618 3.0640826525 3.0786768432 3.0932710339 3.1078652246 3.1224594153 2.9473291268 2.9473291268 2.9619233175 
2.9619233175 2.9765175082 2.9765175082 2.991111699 2.991111699 3.0057058897 3.0057058897 3.0203000804 3.0203000804 
3.0348942711 3.0348942711 3.0494884618 3.0494884618 3.0640826525 3.0640826525 3.0786768432 3.0786768432 3.0932710339 
3.0932710339 3.1078652246 3.1078652246 3.1224594153 3.1224594153 2.9473291268 2.9619233175 2.9765175082 2.991111699 
3.0057058897 3.0203000804 3.0348942711 3.0494884618 3.0640826525 3.0786768432 3.0932710339 3.1078652246 3.1224594153 
3.137053606 2.9473291268 2.9619233175 2.9765175082 2.991111699 3.0057058897 3.0203000804 3.0348942711 3.0494884618 
3.0640826525 3.0786768432 3.0932710339 3.1078652246 3.1224594153 3.137053606 2.9473291268 2.9619233175 2.9765175082 
2.991111699 3.0057058897 3.0203000804 3.0348942711 3.0494884618 3.0640826525 3.0786768432 3.0932710339 3.1078652246 
3.1224594153 3.137053606 2.9473291268 2.9619233175 2.9765175082 2.991111699 3.0057058897 3.0203000804 3.0348942711 
3.0494884618 3.0640826525 3.0786768432 3.0932710339 3.1078652246 3.1224594153 3.137053606 2.9473291268 2.9619233175 
2.9765175082 2.991111699 3.0057058897 3.0203000804 3.0348942711 3.0494884618 3.0640826525 3.0786768432 3.0932710339 
3.1078652246 3.1224594153 3.137053606 2.9473291268 2.9619233175 2.9765175082 2.991111699 3.0057058897 3.0203000804 
3.0348942711 3.0494884618 3.0640826525 3.0786768432 3.0932710339 3.1078652246 3.1224594153 3.137053606 2.9473291268 
2.9619233175 2.9765175082 2.991111699 3.0057058897 3.0203000804 3.0348942711 3.0494884618 3.0640826525 3.0786768432 
3.0932710339 3.1078652246 3.1224594153 3.137053606 2.9473291268 2.9619233175 2.9765175082 2.991111699 3.0057058897 
3.0203000804 3.0348942711 3.0494884618 3.0640826525 3.0786768432 3.0932710339 3.1078652246 3.1224594153 3.137053606 
2.9473291268 2.9619233175 2.9765175082 2.991111699 3.0057058897 3.0203000804 3.0348942711 3.0494884618 3.0640826525 
3.0786768432 3.0932710339 3.1078652246 3.1224594153 3.137053606 3.137053606 3.137053606 3.1224594153 3.1078652246 
3.0932710339 3.0786768432 3.0640826525 3.0640826525 3.0786768432 3.0786768432 3.0786768432 3.0640826525 3.0494884618 
3.0348942711 3.0203000804 3.0203000804 3.0203000804 3.0348942711 3.0494884618 3.0640826525 3.0786768432 3.0932710339 
3.1078652246 2.9473291268 2.9473291268 2.9619233175 2.9619233175 2.9765175082 2.9765175082 2.991111699 2.991111699 
3.0057058897 3.0057058897 3.0203000804 3.0203000804 3.0348942711 3.0348942711 3.0494884618 3.0494884618 3.0640826525 
3.0640826525 3.0786768432 3.0786768432 3.0932710339 3.0932710339 3.1078652246 3.1078652246 2.9473291268 2.9619233175 
2.9765175082 2.991111699 3.0057058897 3.0203000804 3.0348942711 3.0494884618 3.0640826525 3.0786768432 3.0932710339 
3.1078652246 2.9473291268 2.9619233175 2.9765175082 2.991111699 3.0057058897 3.0203000804 3.0348942711 3.0494884618 