# vtk DataFile Version 4.2
vtk output
ASCII
DATASET UNSTRUCTURED_GRID
POINTS 1740 double
2144.07 -94.44003 0 2911 0 0 16.54298 -37.82236 0 
5.09149 -21.30132 0 1.27433 -10.75385 0 0 0 0 
2.54575 15.14293 0 6.36291 23.76126 0 14.00014 34.89063 0 
30.50239 50.70793 0 33.39435 -52.93479 0 2050.91 -103.7862 0 
60.1465 -69.72165 0 88.83633 -83.2817 0 118.7656 -94.71113 0 
153.4168 -105.7022 0 199.5806 -117.771 0 261.4466 -130.7139 0 
345.846 -144.1892 0 460.3522 -157.0592 0 608.4185 -167.1903 0 
783.2313 -172.4016 0 941.0559 -172.4533 0 1063.409 -170.1096 0 
1164.153 -166.8746 0 1263.449 -162.682 0 1375.468 -156.8941 0 
1513.293 -148.414 0 1665.281 -137.5317 0 1791.864 -127.3721 0 
2195.451 -89.09491 0 2273.924 -80.67077 0 2383.731 -68.3513 0 
2517.64 -52.47337 0 2649.227 -35.9232 0 2740.773 -23.82991 0 
2804.387 -15.13419 0 2848.802 -8.916218 0 2881.944 -4.196067 0 
56.61447 67.79801 0 84.09687 81.25172 0 112.4783 92.48395 0 
142.1748 102.3504 0 174.8563 111.6168 0 213.124 120.8806 0 
260.3759 130.5151 0 324.6539 141.1779 0 418.1422 152.9178 0 
535.6656 162.9871 0 690.9154 170.4255 0 902.6513 172.7852 0 
1100.32 169.0517 0 1270.99 162.3262 0 1462.794 151.6837 0 
1631.287 140.0952 0 1747.993 131 0 1922.788 115.9027 0 
2069.56 101.951 0 2128.804 96.0021 0 2297.147 78.11721 0 
2414.379 64.80104 0 2554.023 47.99319 0 2673.693 32.73885 0 
2757.97 21.50315 0 2814.297 13.7575 0 2852.02 8.460961 0 
2882.272 4.148909 0 1791.052 127.4402 0 1366.894 157.3738 0 
1444.38 -152.8302 0 1547.039 146.1296 0 1589.287 -143.1614 0 
1878.731 119.8675 0 1997.072 108.9828 0 1185.654 166.0472 0 
1882.536 -119.5292 0 1971.323 -111.4145 0 1684.777 136.0292 0 
2099.317 -98.9855 0 2234.809 84.9091 0 2181.695 90.53914 0 
1728.573 -132.5703 0 1718.815 133.3509 0 1834.825 123.7132 0 
1960.305 112.4444 0 2033.69 105.4648 0 2099.184 98.99892 0 
2214.291 -76.279207607 396.8421 2955.512 13.261709002 396.8421 158.0786 -27.199595542 396.8421 
147.0109 -11.337949619 396.8421 143.3217 -1.1935960735 396.8421 142.09 9.1626590792 396.8421 
144.5505 23.767953697 396.8421 148.2398 32.092370196 396.8421 155.621 42.855953069 396.8421 
171.5701 58.181700857 396.8421 174.3652 -41.676473625 396.8421 2124.254 -85.251370426 396.8421 
200.2206 -57.717209355 396.8421 227.9488 -70.639847857 396.8421 256.8748 -81.50462067 396.8421 
290.3647 -91.925484228 396.8421 334.981 -103.33164798 396.8421 394.7733 -115.51059529 396.8421 
476.3434 -128.10835898 396.8421 587.0114 -140.00936075 396.8421 730.1145 -149.16872146 396.8421 
899.0676 -153.54592255 396.8421 1051.602 -153.07962512 396.8421 1169.853 -150.46572835 396.8421 
1267.221 -147.08579552 396.8421 1363.188 -142.81415079 396.8421 1471.452 -137.00854683 396.8421 
1604.657 -128.60570052 396.8421 1751.55 -117.92931136 396.8421 1873.891 -108.03476772 396.8421 
2263.949 -71.159884438 396.8421 2339.792 -63.107624498 396.8421 2445.918 -51.364193345 396.8421 
2575.338 -36.278623071 396.8421 2702.515 -20.606403759 396.8421 2790.992 -9.183995772 396.8421 
2852.473 -0.98437371984 396.8421 2895.4 4.8723337939 396.8421 2927.431 9.3148322108 396.8421 
196.807 74.781719816 396.8421 223.3682 87.883231748 396.8421 250.7983 98.847306694 396.8421 
279.4994 108.50035291 396.8421 311.0855 117.58826519 396.8421 348.0705 126.69860786 396.8421 
393.7383 136.20618585 396.8421 455.8617 146.7794667 396.8421 546.2162 158.51401597 396.8421 
659.8003 168.72555354 396.8421 809.846 176.52553912 396.8421 1014.485 179.57983649 396.8421 
1205.528 176.61479128 396.8421 1370.477 170.59672287 396.8421 1555.851 160.75944632 396.8421 
1718.696 149.86253901 396.8421 1831.49 141.22841414 396.8421 2000.426 126.78254871 396.8421 
2142.278 113.3335704 396.8421 2199.537 107.57475158 396.8421 2362.236 90.185732257 396.8421 
2475.539 77.173959297 396.8421 2610.501 60.68255853 396.8421 2726.16 45.658328386 396.8421 
2807.613 34.561599375 396.8421 2862.05 26.898129299 396.8421 2898.509 21.65182326 396.8421 
2927.749 17.377273245 396.8421 1873.106 137.83384829 396.8421 1463.165 166.04761373 396.8421 
1538.054 -132.97000261 396.8421 1637.272 155.55420014 396.8421 1678.104 -123.44053679 396.8421 
1957.846 130.5881779 396.8421 2072.22 120.12265354 396.8421 1288 173.961144 396.8421 
1961.524 -100.43322017 396.8421 2047.334 -92.596103153 396.8421 1770.393 146.0101589 396.8421 
2171.038 -80.639393889 396.8421 2301.989 96.801859364 396.8421 2250.655 102.2747901 396.8421 
1812.721 -113.08989366 396.8421 1803.29 143.46571889 396.8421 1915.411 134.27168561 396.8421 
2036.686 123.45682838 396.8421 2107.61 116.72863187 396.8421 2170.909 110.47753652 396.8421 
2284.511 -61.243989923 793.6842 3000.027 24.018018924 793.6842 299.6143 -17.549292057 793.6842 
288.9304 -2.309459455 793.6842 285.3691 7.4506406283 793.6842 284.1801 17.424732769 793.6842 
286.5551 31.507866478 793.6842 290.1167 39.54381492 793.6842 297.2417 49.944745141 793.6842 
312.6379 64.775516972 793.6842 315.336 -31.434404917 793.6842 2197.597 -69.852137917 793.6842 
340.2947 -46.789724394 793.6842 367.0612 -59.134683834 793.6842 394.9839 -69.493805076 793.6842 
427.3123 -79.410006081 793.6842 470.3812 -90.237749324 793.6842 528.0998 -101.7613229 793.6842 
606.8411 -113.62357832 793.6842 713.6708 -124.73895738 793.6842 851.8104 -133.14877199 793.6842 
1014.904 -136.93304789 793.6842 1162.147 -136.14610753 793.6842 1276.298 -133.400631 793.6842 
1370.288 -129.97998333 793.6842 1462.927 -125.72267163 793.6842 1567.436 -119.99344799 793.6842 
1696.021 -111.76545148 793.6842 1837.82 -101.37838547 793.6842 1955.917 -91.797558878 793.6842 
2332.447 -56.339512377 793.6842 2405.659 -48.634658813 793.6842 2508.105 -37.416824367 793.6842 
2633.037 -23.035265226 793.6842 2755.801 -8.1238534342 793.6842 2841.209 2.7277325849 793.6842 
2900.561 10.510088151 793.6842 2941.997 16.065284568 793.6842 2972.917 20.277235988 793.6842 
336.9995 80.870064568 793.6842 362.6396 93.597580272 793.6842 389.1182 104.26759652 793.6842 
416.8239 113.67786419 793.6842 447.3145 122.55289662 793.6842 483.0167 131.4674444 793.6842 
527.1009 140.79342821 793.6842 587.0697 151.19977516 793.6842 674.2905 162.8120042 793.6842 
783.9349 173.01397794 793.6842 928.7766 180.97104093 793.6842 1126.317 184.44324544 793.6842 
1310.735 181.99994181 793.6842 1469.963 176.49221633 793.6842 1648.908 167.26329211 793.6842 
1806.105 156.91271069 793.6842 1914.987 148.65645048 793.6842 2078.064 134.76836964 793.6842 
2214.996 121.77536575 793.6842 2270.269 116.19664392 793.6842 2427.326 99.305390454 793.6842 
2536.699 86.627430275 793.6842 2666.98 70.519865427 793.6842 2778.628 55.813048107 793.6842 
2857.255 44.933898684 793.6842 2909.806 37.413324281 793.6842 2945.001 32.261683622 793.6842 
2973.224 28.062494851 793.6842 1955.16 145.40037254 793.6842 1559.437 172.24424529 793.6842 
1631.729 -116.0315343 793.6842 1727.505 162.33074155 793.6842 1766.921 -106.73272959 793.6842 
2036.96 138.43462015 793.6842 2147.368 128.34084649 793.6842 1390.347 179.59636981 793.6842 
2040.511 -84.459795773 793.6842 2123.346 -76.911972792 793.6842 1856.009 153.23384199 793.6842 
2242.759 -65.425192407 793.6842 2369.167 105.73966674 793.6842 2319.614 111.05532168 793.6842 
1896.869 -96.687826301 793.6842 1887.765 150.79957702 793.6842 1995.998 141.97840297 793.6842 
2113.066 131.56046309 793.6842 2181.531 125.06021295 793.6842 2242.634 119.00968419 793.6842 
2354.732 -48.844103801 1190.526 3044.539 32.573704331 1190.526 441.15 -8.9826804821 1190.526 
430.8497 5.6635462799 1190.526 427.4164 15.053276031 1190.526 426.2701 24.656295886 1190.526 
428.5601 38.227790041 1190.526 431.9934 45.978491958 1190.526 438.8627 56.017831113 1190.526 
453.7057 70.348615243 1190.526 456.3069 -22.309466645 1190.526 2270.94 -57.097574872 1190.526 
480.3688 -37.025975386 1190.526 506.1737 -48.839252207 1190.526 533.0934 -58.738213178 1190.526 
564.26 -68.200263432 1190.526 605.7815 -78.514215486 1190.526 661.4265 -89.465273225 1190.526 
737.3385 -100.69984952 1190.526 840.33 -111.16706226 1190.526 973.5064 -118.99184208 1190.526 
1130.74 -122.35892627 1190.526 1272.693 -121.39224348 1190.526 1382.742 -118.61282819 1190.526 
1473.356 -115.2240657 1190.526 1562.666 -111.04539437 1190.526 1663.42 -105.45610073 1190.526 
1787.385 -97.468233652 1190.526 1924.09 -87.424666296 1190.526 2037.944 -78.187931854 1190.526 
2400.946 -44.145590428 1190.526 2471.527 -36.769473543 1190.526 2570.292 -26.040176389 1190.526 
2690.735 -12.299632956 1190.526 2809.091 1.9327328023 1190.526 2891.43 12.282595511 1190.526 
2948.647 19.701785229 1190.526 2988.597 24.996210554 1190.526 3018.403 29.009714492 1190.526 
477.1918 85.922880793 1190.526 501.9109 98.256926257 1190.526 527.4382 108.6105854 1190.526 
554.1485 117.7531627 1190.526 583.5435 126.38662574 1190.526 617.963 135.07081279 1190.526 
660.4633 144.17113839 1190.526 718.2775 154.34907903 1190.526 802.3645 165.74776518 1190.526 
908.0698 175.82400701 1190.526 1047.707 183.78520306 1190.526 1238.151 187.47364812 1190.526 
1415.942 185.37670992 1190.526 1569.449 180.24210776 1190.526 1741.965 171.48758156 1190.526 
1893.514 161.58638298 1190.526 1998.484 153.65381476 1190.526 2155.702 140.26444377 1190.526 
2287.714 127.70007012 1190.526 2341.001 122.29659586 1190.526 2492.415 105.90991893 1190.526 
2597.858 93.589489444 1190.526 2723.46 77.915394671 1190.526 2831.095 63.587993502 1190.526 
2906.899 52.981290964 1190.526 2957.56 45.645636275 1190.526 2991.49 40.619205573 1190.526 
3018.699 36.521281954 1190.526 2037.214 150.51923274 1190.526 1655.708 176.22543426 1190.526 
1725.403 -101.6052724 1190.526 1817.738 166.77662668 1190.526 1855.738 -92.597417295 1190.526 
2116.075 143.80368193 1190.526 2222.516 134.05281135 1190.526 1492.694 183.15277132 1190.526 
2119.498 -71.12698997 1190.526 2199.357 -63.873875564 1190.526 1941.625 158.05470727 1190.526 
2314.479 -52.851880182 1190.526 2436.346 112.15620456 1190.526 2388.573 117.31277265 1190.526 
1981.017 -82.899732023 1190.526 1972.24 155.71514947 1190.526 2076.584 147.22165175 1190.526 
[...]
POINT_DATA 1740
FIELD FieldData 1
Pressure 1 1740 double
3.1044196649 3.0181204018 3.0092585926 2.9859266764 2.9784942951 2.9583734845 2.9710372944 2.9882542457 3.0193716081 
3.0331804122 3.0105747146 3.1082888763 3.033618699 3.0480214107 3.0651408629 3.0639067872 3.081353614 3.0866012887 
3.1071558008 3.1122980716 3.1305585595 3.1385621207 3.1406924144 3.1459714203 3.1414692314 3.137505721 3.1342688552 
3.1306995194 3.124414261 3.1189536646 3.1018010977 3.0984565575 3.0928233744 3.0848521078 3.0739902187 3.0640423969 
3.0540584721 3.0455652008 3.0367391974 3.0692450357 3.0813604412 3.0939373233 3.1071744249 3.1133045092 3.1202203371 
3.1275844652 3.1354043687 3.1513030217 3.164037455 3.1811544329 3.1924795117 3.1991255097 3.2054437452 3.2114630065 
3.2154737651 3.2185261345 3.2195670572 3.2287085345 3.0972126165 3.0858023249 3.0801667877 3.0713556149 3.0618021267 
3.0514044286 3.0409779315 3.0337926639 3.0312973045 3.2185095876 3.2090205252 3.1331153739 3.2126471089 3.1276645135 
3.2192558328 3.2213357916 3.2057829612 3.1151991543 3.1116276988 3.2164301828 3.1062927273 3.0885379368 3.0850861732 
3.1215359313 3.2180418344 3.21919125 3.2206057007 3.2206051696 3.1619581744 3.101456616 3.023131606 3.0271885592 
3.0006934146 3.0078286712 2.9859456514 2.9943474437 3.0063716378 3.0343403546 3.0526941925 3.0347447795 3.1057353965 
3.0550452454 3.0674901138 3.0810190264 3.0849574577 3.1002702512 3.1095807488 3.1226047044 3.1277602217 3.1375739529 
3.1416261857 3.1453163713 3.1451288156 3.1409192145 3.1363854532 3.1314138315 3.1271885921 3.1213793908 3.116251867 
3.0991665994 3.0951756839 3.0894759083 3.0816829298 3.0707268213 3.0607162014 3.0509709298 3.0434625764 3.0278102661 
3.0858589137 3.1068310225 3.1189733945 3.1274201764 3.136549865 3.1411782102 3.1467599361 3.1572255363 3.1691910039 
3.1782454872 3.187928309 3.1961032365 3.2025524779 3.2091581013 3.2128331246 3.2159331175 3.2184525662 3.2208624615 
3.1029504702 3.0904359581 3.0889365328 3.0833680428 3.0752388755 3.0650605651 3.0550396311 3.0447503338 3.038470417 
3.0390282939 3.219169136 3.2110517707 3.1302378186 3.2152200149 3.1240513602 3.2204886885 3.2216360415 3.2074481904 
3.1123801958 3.1087990749 3.2170876877 3.1038351632 3.0909566767 3.089367576 3.1190670152 3.2178423548 3.2193705369 
3.2211967755 3.2266195787 3.0840955815 3.099492663 3.0236029927 3.0278923474 3.0003222318 3.002297902 2.9843605758 
2.9971477026 3.0106782681 3.0392848326 3.0604878317 3.0429868394 3.1036817124 3.0578938383 3.0768778617 3.0949911229 
3.1016622519 3.1138292872 3.1220555273 3.1346420924 3.1405918319 3.1471136262 3.1491911292 3.1484409624 3.1464739686 
3.140862845 3.1353075683 3.1303710335 3.1246978874 3.1195044322 3.1143858034 3.09716897 3.0934393756 3.0875564192 
3.0798432508 3.0687362175 3.0585492051 3.0493174887 3.042136695 3.0283198491 3.09334975 3.1151146309 3.1336217091 
3.1426469022 3.1532863527 3.1618591988 3.1718230712 3.1760279896 3.1846799427 3.1946698991 3.2004695842 3.2063900029 
3.2089284769 3.2156641229 3.2188144658 3.2195534652 3.2211749182 3.2239066708 3.0891992001 3.0937219353 3.0901721469 
3.0850157262 3.0773563215 3.0667724373 3.0570917416 3.0472632052 3.0400929478 3.0418988823 3.2219270337 3.2174476221 
3.1279937857 3.2194270935 3.122037556 3.2227116175 3.2228899411 3.2128949123 3.1105135161 3.1068355022 3.2199178083 
3.1019130765 3.092601473 3.0939650684 3.1171591494 3.2204012719 3.2226535832 3.2241709286 3.1058108034 3.0933911131 
3.0981647208 3.0239915676 3.0285713859 3.0003961913 3.0028870935 2.9824304916 2.9929131665 3.0072571107 3.0400843699 
3.0615775541 3.0423950301 3.1023644631 3.062763959 3.080185485 3.0989811347 3.1079131859 3.1197671786 3.1284480006 
3.1402039253 3.1470976595 3.1531002697 3.1538139057 3.1517621953 3.1478834064 3.1414544153 3.1354849748 3.1299127948 
3.1240474651 3.1182121365 3.1131651241 3.0959319792 3.0921789466 3.0865472675 3.0788501922 3.067960628 3.0577653965 
3.0489067051 3.0416847352 3.02854008 3.0974272352 3.1208097006 3.1362281258 3.1484616 3.1559248738 3.1670170523 
3.1796272102 3.1895269998 3.1974903064 3.2072006779 3.2129658567 3.2178902254 3.2186631102 3.2243923911 3.2268153366 
3.2267167569 3.2275166749 3.2305149291 3.0921512469 3.0909576463 3.0893347182 3.0847685591 3.0772287619 3.0670619388 
3.0574397685 3.0479677108 3.0405647618 3.0423987862 3.2278748422 3.2257142346 3.1274130349 3.2268888804 3.1210222427 
3.2280774211 3.0993448265 3.2217442713 3.1093401893 3.1054850449 3.2267691583 3.1004880258 3.0912965456 3.0920489574 
3.1157190801 3.2268564993 3.2282462211 3.2289599226 3.0888836105 3.0912203065 3.097390705 3.023405303 3.0307652851 
3.0012894272 3.0085149295 2.986899321 2.9949160191 3.0083364342 3.0421687763 3.0630059982 3.0434106755 3.1015041911 
3.0649560951 3.082289464 3.0990923848 3.1089924214 3.1215061971 3.131964123 3.1428187759 3.1503865255 3.1567056606 
3.1563296683 3.1530442581 3.1478664032 3.1409479062 3.1346886635 3.1288449684 3.1232282305 3.1173807108 3.1121198382 
3.0951379533 3.0913619648 3.0858418352 3.0781697947 3.0675065313 3.0574684631 3.0487949138 3.0413989812 3.0289389762 
3.0989968739 3.1228968289 3.1379561168 3.151130555 3.1602991973 3.171605065 3.1831202949 3.1891426806 3.2003600414 
3.2129412792 3.2219656832 3.2265999383 3.2280088081 3.2328205733 3.2346073197 3.2342111649 3.2347360739 3.2426949628 
3.0898638911 3.0905984801 3.0876877001 3.0827508314 3.0749616018 3.0652458003 3.0558588516 3.0465266804 3.0391414761 
3.0414073879 3.2350334605 3.2343475309 3.1265861724 3.2344505475 3.1201809634 3.2346839831 3.0846629423 3.2307466857 
3.1083659157 3.1045044242 3.234194927 3.0994909371 3.0897050817 3.0903936685 3.1147716131 3.2342679406 3.235534356 
3.1078719817 3.0880193928 3.090464273 3.0967137479 3.0220562583 3.0319192582 3.0026970275 3.0104654176 2.9879384322 
2.9964883485 3.0098968353 3.0432337717 3.0650416467 3.0441895127 3.100699458 3.0660102173 3.0839421819 3.09997761 
3.1103347463 3.1228832436 3.1340894671 3.145260557 3.1527466428 3.1597187022 3.1582657493 3.1538682515 3.147546543 
3.1403082316 3.1339126558 3.1279837897 3.1224053716 3.1165209959 3.1112258716 3.0944489386 3.0906700131 3.0852660835 
3.0776057007 3.067088981 3.0571072712 3.0485541481 3.0410184378 3.0293921215 3.1006594862 3.1249321802 3.1400803903 
3.1532980339 3.162473539 3.1743038381 3.1871397762 3.1945963117 3.2061630386 3.2181492684 3.2288529861 3.2346367505 
3.2367257371 3.2422455491 3.2436190637 3.2422695325 3.2422200471 3.1545380905 3.0861238889 3.0861049226 3.0834774135 
3.0786316736 3.0710781485 3.0619422369 3.0528751389 3.0438904172 3.036617457 3.0390159667 3.2423640594 3.2427557451 
3.1257307619 3.2429825611 3.1193571928 3.2398195308 3.0842715972 3.2394648409 3.1075173377 3.1036897109 3.2419092455 
3.0987944845 3.0856381558 3.0857928035 3.1139236808 3.2419280597 3.2428743071 3.0847137212 3.0856398136 3.0858924519 
3.0961784134 3.0209961905 3.0323063527 3.0028623655 3.0101807575 2.9876180566 2.9964091527 3.0100464829 3.0434984869 
3.0656478577 3.0445540571 3.1001866672 3.0665168266 3.084664649 3.1006964389 3.1113769077 3.1239914365 3.1356635114 
3.1468396515 3.1544166972 3.1617928843 3.1596797525 3.1544069341 3.1472883427 3.1399630847 3.1335437873 3.127569188 
3.1219372845 3.1160203516 3.1107379552 3.0939468832 3.0901815458 3.0848579968 3.0772240938 3.0667805429 3.0567825849 
3.0482967801 3.0406463603 3.0296447339 3.1013822753 3.1259376734 3.1414484788 3.1547928796 3.164313547 3.1762434906 
3.1889982052 3.1972625299 3.2094030418 3.2224437929 3.2339058628 3.2409616992 3.2443604455 3.250424718 3.2522218489 
3.2512763564 3.2506043312 3.095660547 3.0832426636 3.0824906398 3.0799081876 3.0754315926 3.0683380313 3.0593336561 
3.0504306696 3.0418552518 3.0346709931 3.0372824144 3.2504539263 3.2518010765 3.1253054627 3.2521125327 3.1188650903 
3.2473498021 3.0838661252 3.2474941897 3.1070120169 3.1031543327 3.2506303069 3.0982471949 3.0817091647 3.0818591153 
3.1133649797 3.2502852796 3.2507682575 3.0847186728 3.0836185661 3.0827258106 3.095947261 3.0209235331 3.0327012807 
3.0031016173 3.0104516447 2.9879787876 2.9965510018 3.0101365236 3.0437971961 3.0660279863 3.0447898261 3.0999966669 
3.0668057052 3.0850485707 3.1010190926 3.1119627699 3.1246749858 3.1366918056 3.1478507199 3.1555709588 3.1632675961 
3.1607118343 3.1547523294 3.1471796091 3.1398408225 3.1334096942 3.127438062 3.1216325484 3.115801426 3.1104945887 
3.0937305752 3.0899488761 3.0846849126 3.0770496457 3.0666559583 3.0565365013 3.0480821192 3.0403836059 3.0296923329 
3.1019001077 3.1266165357 3.1424213313 3.1558759839 3.165518283 3.1775367762 3.1903326589 3.1992359958 3.2117203426 
3.2251763046 3.2373130318 3.2456650435 3.2503383348 3.2571942027 3.2598647423 3.2595042232 3.2589281178 3.0900365411 
3.0819105048 3.0811928156 3.0785896848 3.0745399326 3.0678031535 3.0586806557 3.0498483468 3.0414653102 3.0343095217 
3.036994003 3.2589442423 3.2592012641 3.1250470964 3.2597413386 3.1186410036 3.2558326831 3.0835740689 3.2538766786 
3.1067528846 3.10297711 3.2591078711 3.0979960058 3.0802553258 3.0809002901 3.113104412 3.258680889 3.2598193118 
3.0819685781 3.0824733146 3.0817449963 3.0959300903 3.0214368451 3.0330677888 3.0033741514 3.0107766268 2.9884042563 
2.9969519123 3.0105294204 3.0442546269 3.0665846899 3.044951396 3.0998912751 3.0669663645 3.0852899792 3.1013673294 
3.1125378095 3.1251923178 3.1374605065 3.1486579203 3.1566552494 3.1644416889 3.1616279629 3.1551379753 3.1473269819 
3.1399555955 3.1334785055 3.1275243027 3.1216259364 3.1157681329 3.110452756 3.0936713485 3.0898986784 3.0846865156 
3.0770137026 3.0666795528 3.0564651156 3.0480106848 3.0402827835 3.0296658098 3.1025520595 3.1273604947 3.1432967624 
3.1568516681 3.1665863776 3.1786711075 3.1914282722 3.2007397897 3.213548946 3.22723285 3.2396995515 3.2491203011 
3.2546647309 3.2622397604 3.2663397431 3.2661995768 3.2664781101 3.0912726651 3.0815554626 3.0807005561 3.0779233746 
3.0741382563 3.0677641653 3.0586723629 3.0500424882 3.041775119 3.0346565424 3.0374180302 3.2667433471 3.264572933 
3.1250867713 3.2664805074 3.1186513833 3.2636014609 3.0807332188 3.258542577 3.1067724166 3.1029135842 3.2661275516 
3.0979128136 3.0797722873 3.080197795 3.1130324914 3.2659659693 3.2669689404 3.0804650183 3.0812580974 3.0816133605 
3.0959905175 3.0219565467 3.0333509837 3.0036011332 3.0109125843 2.9887644184 2.9973770109 3.0109792752 3.0447358379 
3.0671837485 3.0450402999 3.1000076198 3.0669513885 3.0852972704 3.1014688195 3.1127951757 3.1255134795 3.1379471069 
3.1493007394 3.1576620608 3.1654695684 3.1625434539 3.1557166776 3.1477918722 3.140319585 3.1337850127 3.1278046528 
3.1218647217 3.1160000231 3.1106132315 3.0937707442 3.0899891518 3.084813735 3.0771045149 3.066799169 3.0565641455 
3.048117986 3.0403650958 3.0299350833 3.1032608282 3.1281292959 3.1442231704 3.1578373383 3.1676307048 3.1797485517 
3.1924827876 3.2020496882 3.2151222867 3.2289486258 3.2415913233 3.2513707902 3.2576626518 3.2658005582 3.2700806298 
3.2713938035 3.2718532996 3.0999353087 3.081106421 3.0799947216 3.0774258308 3.0736271561 3.0672338379 3.0581483463 
3.0496720848 3.0415661473 3.0345494252 3.0373116744 3.2721923025 3.2684734874 3.1253482456 3.271196174 3.1188971807 
3.2692277233 3.0805718831 3.2618416314 3.1069681645 3.1031954965 3.2715285766 3.0979138202 3.0792922432 3.0796871704 
3.1131882695 3.2715819127 3.2724026498 3.0851496294 3.0802271194 3.0809698845 3.0962731025 3.0220403946 3.0335710021 
3.0037462402 3.0108716051 2.9891116514 2.9978178108 3.0114319686 3.0452224283 3.0677874417 3.0447747905 3.100343511 
3.066699553 3.085151452 3.1014846378 3.1129343256 3.1257173688 3.1382205398 3.1498608481 3.1584982403 3.1663606944 
3.1634938429 3.1565293555 3.1485259804 3.1409083731 3.1343169365 3.1282650032 3.1224115342 3.1164288622 3.1109855757 
3.094065822 3.0902567436 3.0850825604 3.0773233003 3.0670543883 3.0567728001 3.0483251924 3.0405496855 3.0302722539 
3.1040176247 3.1289346737 3.1451253826 3.1588045186 3.1686474469 3.1807771649 3.1935099622 3.2032360109 3.2165223107 
3.2304118608 3.2431933025 3.2530727565 3.2596904322 3.2682843133 3.2728414217 3.2746399937 3.2755515484 3.1134762439 
3.0788236229 3.0782668117 3.0757021419 3.0717073636 3.0653107483 3.0564003119 3.0480453147 3.0401387205 3.0333467221 
3.0359186529 3.2761727112 3.2710789038 3.1258850601 3.2742624332 3.1193621319 3.2747849014 3.077180691 3.2640163898 
3.107329814 3.1036666678 3.2751438218 3.0981861 3.0774277758 3.0777661972 3.1135671497 3.2752398553 3.2767806927 
3.0822369982 3.0775493205 3.0787270399 3.0966459962 3.0215839083 3.0336910802 3.0038292654 3.0107793718 2.9894440035 
2.998277755 3.0119061305 3.0458245089 3.0684656026 3.0444618326 3.1007018874 3.0663817041 3.0848582658 3.1014029793 
3.1129824117 3.1257807396 3.1383707931 3.1503382404 3.1595382553 3.1671078438 3.1645144208 3.1575835236 3.149501375 
3.1416891031 3.1350309832 3.128869237 3.1230881274 3.1169665974 3.1114594091 3.0944179187 3.0905734385 3.0854112871 
3.0775821149 3.0673256225 3.0570007304 3.0485402713 3.0407432959 3.0305738407 3.1048798871 3.1298078402 3.1460511773 
3.1597991226 3.1696553367 3.1818130372 3.1945425707 3.2043798278 3.2178646915 3.2317229865 3.2445881646 3.2545190144 
3.2612211802 3.2699804671 3.2746444094 3.2767752671 3.2780183443 3.1211740558 3.075573496 3.0749666465 3.0723567058 
3.0683116911 3.0620500647 3.0535143083 3.0452942091 3.0375910511 3.0311220818 3.03343151 3.2787345121 3.2729590254 
3.1265545153 3.2762288889 3.1198890025 3.2775660824 3.0740485022 3.2655961292 3.1077914254 3.1040734992 3.2773794327 
3.0985034781 3.0742374917 3.0744223919 3.1140447531 3.2775943986 3.2792786009 3.0790620709 3.0748149714 3.075365823 
3.0969826388 3.0211638534 3.0337817477 3.0038656548 3.0106149455 2.9897450032 2.998754557 3.0124144071 3.0465611275 
3.069253161 3.0441132072 3.1010357886 3.0660009315 3.0845082496 3.1012730618 3.1129935021 3.1257680151 3.1384581917 
3.1507463476 3.160495479 3.1679108186 3.1657705482 3.1589661192 3.1507371465 3.1426398694 3.1358616357 3.1295733013 
3.1237641645 3.1174880973 3.1119262392 3.0947262173 3.0908613198 3.085692424 3.0778035799 3.0675336883 3.0571817936 
3.0486985322 3.0408878499 3.030710307 3.1058583031 3.1307666747 3.1470652337 3.1608935467 3.1707428783 3.1829246909 
3.195657525 3.2055787431 3.2192705227 3.2330164186 3.2458610932 3.2558540888 3.2625253587 3.2712301948 3.276165583 
3.2783691456 3.279702617 3.1159536646 3.0714707976 3.0712878321 3.0685544206 3.0646346904 3.0586496635 3.0505366868 
3.0425056133 3.0350816532 3.0290765354 3.0310041022 3.2805212442 3.2744066577 3.1272552736 3.2777790758 3.1205259645 
3.2789143292 3.0709587896 3.2668637794 3.1082048084 3.1044438133 3.2790154552 3.0988168644 3.0703435532 3.0706197593 
3.1145203196 3.2792499144 3.2809649327 3.0762268587 3.0710172559 3.0712516149 3.0973435345 3.0214968848 3.0339582345 
3.0039822205 3.0104613226 2.9901844183 2.9993712127 3.0129402859 3.0474676036 3.0701866986 3.0437413608 3.1014210048 
3.065628368 3.0841634102 3.101111892 3.1129625884 3.1257358457 3.1384847621 3.1511162408 3.1614766953 3.1688636518 
3.1673207642 3.1607680217 3.1522303406 3.1437305182 3.1367233375 3.1302874068 3.124430054 3.11802118 3.1124301568 
3.0950757182 3.0911970229 3.0859672543 3.0780597493 3.0677283866 3.0573589754 3.0488341458 3.0410548433 3.0305937461 
3.1070158636 3.131888408 3.1481934099 3.1621030146 3.1719365996 3.1841533804 3.1969019822 3.206873623 3.2207623368 
3.2343088699 3.2471482289 3.257019664 3.2636949201 3.2722920602 3.2773239309 3.2796710439 3.28105212 3.0997872917 
3.0665145528 3.0668241989 3.0664204328 3.0628777212 3.0574834543 3.0494502166 3.0415482289 3.0344134408 3.0287400998 
3.0304623618 3.2819976934 3.2755564279 3.1279997387 3.2790146027 3.1211419575 3.2792834498 3.0670127833 3.2679647455 
3.1085865966 3.1048126378 3.2803496097 3.0992075854 3.0677066946 3.0674652181 3.1150560303 3.2805728779 3.2833536306 
3.0693305507 3.0663885539 3.0662688834 3.0978422541 3.0225891267 3.0341193131 3.0042353534 3.0107275906 2.9909075891 
3.0003205606 3.0136314245 3.0486118185 3.071250564 3.0433409135 3.1020128254 3.0651376112 3.0837113452 3.1007942203 
3.1126244838 3.1254961226 3.1380982749 3.1514347284 3.1620599932 3.1698485807 3.1693474447 3.1630830102 3.1539875849 
3.1448829454 3.1375263221 3.1308142086 3.1250046579 3.1187642613 3.1131047644 3.0955661901 3.0916694516 3.0863423031 
3.0784312445 3.0679992934 3.057592766 3.0489973356 3.0412331396 3.0301090353 3.1081771026 3.1331106378 3.1493099246 
3.1632565597 3.1731155921 3.1852364361 3.1981029736 3.2081458436 3.2221265164 3.2355528392 3.2482207659 3.2583623018 
3.2649562986 3.2734043463 3.278865862 3.2814566731 3.2829217976 3.071109073 3.0678401139 3.0680983624 3.0684657055 
3.0650344682 3.0597476884 3.0513413234 3.0434712963 3.0364009324 3.0308072267 3.0323063116 3.284071765 3.2767129572 
3.128580968 3.280614844 3.1216715118 3.268987946 3.0649564867 3.2691194091 3.1091794583 3.1053981167 3.2820112093 
3.0997781787 3.0699721849 3.0695874642 3.1158363411 3.2823908986 3.2889406315 3.0625198097 3.0674792025 3.0677750478 
3.098373187 3.0238289893 3.0329069106 3.0035097282 3.0109215725 2.9905701847 3.0005410427 3.0139903489 3.0486688772 
3.0718365029 3.0423899864 3.1027059211 3.0637671704 3.082567151 3.099753104 3.1117658642 3.1247522075 3.1369077331 
3.1517284017 3.1618727842 3.1710728337 3.1716761028 3.1658871133 3.156045252 3.1461168002 3.1382771497 3.1313713752 
3.1254547666 3.1197421632 3.1139195945 3.0960634797 3.0920809134 3.0867180905 3.0787395565 3.0681727598 3.0577054188 
3.0490526407 3.0412460746 3.0291386483 3.108773277 3.1340013136 3.1500723433 3.1638729807 3.1738683368 3.186146619 
3.1990770209 3.2092760113 3.2232893734 3.2368469954 3.2499383817 3.25971479 3.2666223103 3.2753135076 3.2820157821 
3.2846021196 3.2847237752 3.0714962877 3.0732335665 3.0728905692 3.0723104282 3.0687561284 3.0633354546 3.0548100429 
3.047044003 3.0395910497 3.0339572832 3.0356091637 3.2851867958 3.2789388636 3.1292096617 3.2835347236 3.122190382 
3.1316955626 3.0731000138 3.2706794819 3.1099347634 3.1059333212 3.2845876486 3.1003626141 3.0732879327 3.073772486 
3.1166569482 3.2848033889 3.277563956 3.0705688339 3.0729299669 3.0728506065 3.0986603925 3.0244836717 3.031536055 
3.0013088858 3.0066590082 2.9893321384 2.9993452378 3.01348369 3.0477755697 3.0717456576 3.0408613609 3.1027955574 
3.0626625245 3.0814679117 3.0993483564 3.110809395 3.1240288076 3.1355870313 3.1527804482 3.1632675929 3.173691041 
3.1768068721 3.1700450146 3.1589311598 3.1472249342 3.1387933086 3.131727117 3.1253717398 3.1191200909 3.1142890448 
3.096470361 3.0923889737 3.0870065846 3.0792695634 3.0683045791 3.0576704397 3.0488241836 3.0409996635 3.027415415 
3.1092895004 3.1346018652 3.1510478262 3.165242023 3.175219096 3.187457133 3.2001642224 3.2111485272 3.2258897052 
3.2398949601 3.2531915745 3.2662094716 3.2706905784 3.2789431688 3.2842181579 3.2845574964 3.2840433978 3.0705003846 
3.0781746605 3.0777996557 3.0772159784 3.0738301726 3.0678707195 3.0588498799 3.0511369634 3.0436666083 3.0374710494 
3.0397881839 3.2839102496 3.2822665789 3.1290457053 3.2845517469 3.1223098494 3.0577382079 3.0762839588 3.2742147272 
3.1096669716 3.1059868279 3.2842997739 3.1008045772 3.0781553334 3.0784182213 3.1166742343 3.2840674499 3.1007404345 
3.0738585803 3.076445954 3.0780424775 3.0988156492 3.0276617183 3.0332247625 3.0045266993 3.0081795909 2.9904222827 
3.0017145348 3.0163102872 3.0516409557 3.0729376098 3.0440524481 3.1019467896 3.0633570474 3.0834189123 3.0996435474 
3.1125566684 3.1261188073 3.1378137379 3.1571227399 3.1781568361 3.1813849755 3.1808633233 3.1723886946 3.1578574695 
3.1461931686 3.1375694591 3.1302172218 3.1239483969 3.1169936409 3.1117422952 3.095730574 3.0933593818 3.0876434471 
3.0781583374 3.0684802685 3.0571278871 3.0479567956 3.0393416493 3.0252670127 3.1077223471 3.1349393286 3.156383201 
3.1704747622 3.1794100274 3.196862595 3.2057539786 3.2163844873 3.2342326037 3.246707876 3.262553717 3.2713788768 