# vtk DataFile Version 4.2
vtk output
ASCII
DATASET POLYDATA
POINTS 9830 float
2450.58 -1677.04 5800 2464.96 -1685.22 5800 2493.96 -1686.04 5800 
2522.96 -1686.86 5800 2551.96 -1687.68 5800 2580.96 -1688.5 5800 
2609.96 -1689.33 5800 2638.96 -1688.49 5800 2667.96 -1684.55 5800 
2685.54 -1677.04 5800 2439.81 -1664.04 5800 2696.96 -1672.15 5800 
2715.95 -1664.03 5800 2434.74 -1651.04 5800 2435.96 -1655.74 5800 
2725.97 -1659.75 5800 2746.37 -1651.03 5800 2431.35 -1638.04 5800 
2754.97 -1647.23 5800 2775.76 -1638.03 5800 2427.97 -1625.04 5800 
2783.97 -1634.23 5800 2803.83 -1625.03 5800 2424.59 -1612.04 5800 
2812.97 -1620.79 5800 2831.9 -1612.03 5800 2421.21 -1599.04 5800 
2841.97 -1607.36 5800 2851.27 -1599.02 5800 2417.83 -1586.04 5800 
2869.17 -1586.02 5800 2414.45 -1573.04 5800 2870.98 -1584.89 5800 
2880.05 -1573.02 5800 2411.07 -1560.04 5800 2890 -1560.02 5800 
2407.69 -1547.04 5800 2899.94 -1547.02 5800 2404.31 -1534.04 5800 
2406.96 -1544.24 5800 2899.98 -1546.97 5800 2909.89 -1534.02 5800 
2400.93 -1521.03 5800 2919.83 -1521.02 5800 2397.55 -1508.03 5800 
2928.99 -1509.05 5800 2929.77 -1508.02 5800 2394.17 -1495.03 5800 
2939.72 -1495.01 5800 2390.79 -1482.03 5800 2949.66 -1482.01 5800 
2382.64 -1469.03 5800 2957.81 -1469.01 5800 2370.81 -1456.03 5800 
2377.97 -1463.9 5800 2957.99 -1468.62 5800 2963.44 -1456.01 5800 
2358.99 -1443.03 5800 2969.05 -1443.01 5800 2347.13 -1430.03 5800 
2348.97 -1432.01 5800 2974.67 -1430.01 5800 2334.72 -1417.03 5800 
2980.29 -1417.01 5800 2321.69 -1404.03 5800 2985.9 -1404.01 5800 
2307.75 -1391.03 5800 2319.97 -1402.36 5800 2987 -1401.48 5800 
2991.16 -1391 5800 2293.73 -1378.03 5800 2996.13 -1378 5800 
2279.71 -1365.03 5800 2290.97 -1375.47 5800 3000.69 -1365 5800 
2265.69 -1352.03 5800 3005.25 -1352 5800 2251.67 -1339.03 5800 
2261.97 -1348.58 5800 3010.36 -1339 5800 2237.65 -1326.02 5800 
3015.86 -1326 5800 2229.88 -1313.02 5800 2232.98 -1321.69 5800 
3016 -1325.65 5800 3021.35 -1313 5800 2228.8 -1300.02 5800 
3026.85 -1300 5800 2228.45 -1287.02 5800 3032.34 -1286.99 5800 
2228.11 -1274.02 5800 3037.83 -1273.99 5800 2227.76 -1261.02 5800 
3043.33 -1260.99 5800 2227.41 -1248.02 5800 3045.01 -1257.02 5800 
3048.82 -1247.99 5800 2227.07 -1235.02 5800 3054.32 -1234.99 5800 
2226.77 -1222.02 5800 3059.81 -1221.99 5800 2226.54 -1209.02 5800 
3065.31 -1208.99 5800 2226.31 -1196.02 5800 3070.9 -1195.99 5800 
2226.08 -1183.01 5800 3074.01 -1188.39 5800 3075.67 -1182.98 5800 
2225.85 -1170.01 5800 3079.04 -1169.98 5800 2225.62 -1157.01 5800 
3081.76 -1156.98 5800 2225.38 -1144.01 5800 3086.19 -1143.98 5800 
2225.14 -1131.01 5800 3092.23 -1130.98 5800 2224.9 -1118.01 5800 
3097.01 -1117.98 5800 2224.01 -1105.01 5800 3100.86 -1104.98 5800 
2219.13 -1092.01 5800 3103.02 -1096.57 5800 3104.7 -1091.98 5800 
2214.34 -1079.01 5800 3109.9 -1078.98 5800 2209.78 -1066.01 5800 
3116.15 -1065.97 5800 2205.4 -1053.01 5800 3121.35 -1052.97 5800 
2201.02 -1040 5800 2204 -1048.83 5800 3125.74 -1039.97 5800 
2196.64 -1027 5800 3129.5 -1026.97 5800 2192.26 -1014 5800 
3132.03 -1017.03 5800 3133.15 -1013.97 5800 2187.88 -1001 5800 
3138.75 -1000.97 5800 2183.01 -988.001 5800 3144.92 -987.968 5800 
2177.62 -975 5800 3150.04 -974.966 5800 2172.23 -961.999 5800 
2175 -968.692 5800 3154.27 -961.965 5800 2166.83 -948.998 5800 
3157.83 -948.964 5800 2162.43 -935.997 5800 3160.93 -935.963 5800 
2161.09 -922.996 5800 3161.04 -935.613 5800 3166.53 -922.962 5800 
2160.22 -909.995 5800 3172.36 -909.961 5800 2161.56 -896.994 5800 
3177.28 -896.959 5800 2163.25 -883.993 5800 3181.49 -883.958 5800 
2164.93 -870.992 5800 3185.13 -870.957 5800 2166.62 -857.991 5800 
3188.31 -857.956 5800 2168.31 -844.99 5800 3190.04 -852.521 5800 
3192.69 -844.955 5800 2170 -831.989 5800 3196.73 -831.954 5800 
2171.69 -818.988 5800 3200.45 -818.953 5800 2173.37 -805.987 5800 
3202.93 -805.952 5800 2172.45 -792.986 5800 3205.09 -792.951 5800 
2170.7 -779.985 5800 2549.14 -779.972 5800 2552.03 -780.781 5800 
2581.03 -783.901 5800 2588.61 -779.971 5800 3207.72 -779.949 5800 
2168.72 -766.984 5800 2448.87 -766.975 5800 2465.03 -770.217 5800 
2494.03 -770.737 5800 2523.03 -772.805 5800 2610.03 -768.858 5800 
2613.64 -766.969 5800 3210.66 -766.948 5800 2166.73 -753.983 5800 
2428.74 -753.974 5800 2436.03 -763.401 5800 2636.24 -753.967 5800 
3213.6 -753.947 5800 1362.99 -745.468 5800 1352.9 -741.01 5800 
1391.99 -746.156 5800 1420.99 -746.845 5800 1449.99 -747.533 5800 
1478.99 -748.222 5800 1507.99 -748.91 5800 1537 -749.568 5800 
1566 -750.083 5800 1595 -750.589 5800 1624 -751.095 5800 
1653 -748.979 5800 1671.11 -740.999 5800 2164.68 -740.982 5800 
2418.69 -740.974 5800 2639.03 -752.085 5800 2655.35 -740.965 5800 
3216.55 -740.946 5800 1336.79 -728.01 5800 1682 -738.106 5800 
1704.03 -727.997 5800 2162.51 -727.981 5800 2408.64 -727.973 5800 
2668.04 -733.064 5800 2675.52 -727.964 5800 3219.05 -729.907 5800 
3219.48 -727.945 5800 1333.99 -724.967 5800 1323.42 -715.009 5800 
1711 -724.798 5800 1730.33 -714.995 5800 2160.33 -714.981 5800 
2398.48 -714.972 5800 2407.03 -725.889 5800 2694.47 -714.962 5800 
3222.29 -714.944 5800 3654.07 -720.515 5800 3649.97 -714.929 5800 
3659.08 -714.929 5800 1310.77 -702.009 5800 1740.01 -710.304 5800 
1758.07 -701.993 5800 2158.15 -701.98 5800 2388.69 -701.972 5800 
2697.04 -713.314 5800 2707.68 -701.961 5800 3225.1 -701.943 5800 
3634.17 -701.929 5800 3670.74 -701.927 5800 1304.99 -695.637 5800 
1297.04 -689.008 5800 1769.01 -697.048 5800 1786.83 -688.991 5800 
2155.97 -688.979 5800 2378.83 -688.971 5800 2718.68 -688.959 5800 
3227.88 -688.942 5800 3625.07 -697.576 5800 3620.04 -688.928 5800 
3682.4 -688.926 5800 1281.43 -676.008 5800 1798.01 -683.938 5800 
1812.18 -675.99 5800 2153.79 -675.978 5800 2367.79 -675.97 5800 
2378.03 -687.913 5800 2726.04 -679.64 5800 2728.81 -675.958 5800 
3230.31 -675.941 5800 3612.47 -675.927 5800 3683.07 -688.172 5800 
3694.06 -675.925 5800 1275.99 -671.473 5800 1265.83 -663.007 5800 
1827.01 -666.974 5800 1830.02 -662.988 5800 2152.8 -662.977 5800 
2357.5 -662.97 5800 2738.59 -662.957 5800 3232.73 -662.94 5800 
3604.9 -662.927 5800 3705.72 -662.923 5800 1250.23 -650.007 5800 
1839.84 -649.987 5800 2154.82 -649.976 5800 2348.27 -649.969 5800 
2349.03 -651.405 5800 2748.36 -649.955 5800 3235.16 -649.938 5800 
3597.33 -649.926 5800 3712.08 -655.83 5800 3717.38 -649.922 5800 
1246.99 -647.308 5800 1234.63 -637.006 5800 1849.66 -636.985 5800 
2157.79 -636.975 5800 2342.33 -636.968 5800 2755.05 -641.066 5800 
2758.14 -636.954 5800 3237.59 -636.937 5800 3596.07 -647.768 5800 
3590.25 -636.925 5800 3729.07 -636.92 5800 1219.03 -624.006 5800 
1856.02 -628.568 5800 1859.7 -623.984 5800 2160.75 -623.974 5800 
2335.48 -623.967 5800 2767.91 -623.953 5800 3240.01 -623.936 5800 
3585.22 -623.924 5800 3740.75 -623.919 5800 1217.99 -623.144 5800 
1203.43 -611.005 5800 1872.05 -610.982 5800 2161.36 -610.972 5800 
2330.44 -610.967 5800 2777.68 -610.951 5800 3242.44 -610.935 5800 
3582.71 -610.923 5800 3741.08 -623.323 5800 3747.36 -610.918 5800 
1188.99 -598.979 5800 1187.83 -598.005 5800 1884.94 -597.981 5800 
2160.99 -597.971 5800 2324.99 -597.966 5800 2784.05 -602.615 5800 
2787.95 -597.95 5800 3244.87 -597.934 5800 3581.31 -597.922 5800 
3750.42 -597.917 5800 1172.22 -585.005 5800 1885.02 -597.897 5800 
1897.82 -584.98 5800 2160.74 -584.97 5800 2317.87 -584.965 5800 
2320.03 -588.646 5800 2801.29 -584.948 5800 3248.07 -585.302 5800 
3248.16 -584.933 5800 3579.57 -584.922 5800 3753.47 -584.916 5800 
1160 -574.814 5800 1156.62 -572.004 5800 1910.7 -571.978 5800 
2159.6 -571.97 5800 2311.37 -571.964 5800 2813.05 -573.91 5800 
2826.45 -571.947 5800 3252.06 -571.932 5800 3577.26 -571.921 5800 
3756.53 -571.914 5800 1141.02 -559.004 5800 1914.02 -568.632 5800 
1923.7 -558.977 5800 2157.62 -558.969 5800 2304.62 -558.964 5800 
2842.05 -570.158 5800 2871.06 -562.73 5800 2885.43 -558.943 5800 
3255.87 -558.931 5800 3574.02 -558.92 5800 3759.55 -558.913 5800 
1131 -550.65 5800 1125.42 -546.003 5800 1937.5 -545.975 5800 
2155.83 -545.968 5800 2297.98 -545.963 5800 2900.06 -555.175 5800 
2929.06 -547.125 5800 2930.81 -545.941 5800 3259.67 -545.93 5800 
3570.87 -545.919 5800 3762.59 -545.912 5800 1109.82 -533.003 5800 
1943.03 -540.989 5800 1951.5 -532.974 5800 2154.04 -532.967 5800 
2291.51 -532.962 5800 2947.99 -532.939 5800 3263.5 -532.928 5800 
3568.16 -532.918 5800 3765.65 -532.911 5800 1102 -526.485 5800 
1094.22 -520.002 5800 1964.59 -519.972 5800 2152.19 -519.966 5800 
2284.83 -519.961 5800 2291.04 -532.005 5800 2446.94 -519.956 5800 
2465.04 -531.482 5800 2494.05 -527.538 5800 2523.05 -522.63 5800 
2548.06 -519.952 5800 2958.06 -525.078 5800 2964.67 -519.938 5800 
3267.27 -519.927 5800 3567.08 -527.639 5800 3565.53 -519.917 5800 
3768.7 -519.91 5800 1078.62 -507.002 5800 1972.03 -513.1 5800 
1975.62 -506.971 5800 2150.98 -506.965 5800 2278.14 -506.96 5800 
2432.98 -506.955 5800 2436.04 -510.83 5800 2552.05 -519.625 5800 
2581.05 -513.609 5800 2587.34 -506.95 5800 2980.88 -506.936 5800 
3270.95 -506.926 5800 3562.93 -506.916 5800 3770.09 -513.878 5800 
3771.12 -506.909 5800 1073 -502.211 5800 1067.2 -494.001 5800 
1982.93 -493.97 5800 2151.78 -493.964 5800 2272 -493.96 5800 
2422.67 -493.954 5800 2599.33 -493.948 5800 2987.06 -501.829 5800 
2996.08 -493.935 5800 3273.62 -493.925 5800 3559.81 -493.915 5800 
3772.69 -493.908 5800 1066.27 -481 5800 1990.61 -480.968 5800 
2152.47 -480.963 5800 2268.15 -480.959 5800 2411.95 -480.954 5800 
2610.05 -483.032 5800 2612.05 -480.947 5800 3010.64 -480.933 5800 
3275.9 -480.924 5800 3556.47 -480.914 5800 3771.09 -480.907 5800 
1066.28 -467.999 5800 1999.37 -467.967 5800 2153.15 -467.962 5800 
2264.5 -467.958 5800 2398.9 -467.953 5800 2407.05 -476.47 5800 
2624.57 -467.945 5800 3016.07 -476.004 5800 3024.32 -467.932 5800 
3277.08 -473.728 5800 3277.88 -467.923 5800 3553 -467.913 5800 
3769.03 -467.906 5800 3770.09 -473.897 5800 1066.28 -454.998 5800 
2001.03 -465.743 5800 2007.81 -454.966 5800 2154.26 -454.961 5800 
[...]
POINT_DATA 9830
SCALARS Pressure double
LOOKUP_TABLE default
3.0960786751 3.0960786751 3.0960786751 3.0960786751 3.0960786751 3.0960786751 3.0960786751 3.0960786751 3.0960786751 
3.0960786751 3.0960786751 3.0960786751 3.0960786751 3.0960786751 3.0960786751 3.0960786751 3.0960786751 3.0960786751 
3.0960786751 3.0960786751 3.0960786751 3.0960786751 3.0960786751 3.0960786751 3.0960786751 3.0960786751 3.0960786751 
3.0960786751 3.0960786751 3.0960786751 3.0960786751 3.0960786751 3.0960786751 3.0960786751 3.0960786751 3.0960786751 
3.0960786751 3.0960786751 3.0960786751 3.0960786751 3.0960786751 3.0960786751 3.0960786751 3.0960786751 3.0960786751 
3.0960786751 3.0960786751 3.0960786751 3.0960786751 3.0960786751 3.0960786751 3.0960786751 3.0960786751 3.0960786751 
3.0960786751 3.0960786751 3.0960786751 3.0960786751 3.0960786751 3.0960786751 3.0960786751 3.0960786751 3.0960786751 
3.0960786751 3.0960786751 3.0960786751 3.0960786751 3.0960786751 3.0960786751 3.0960786751 3.0960786751 3.0960786751 
3.0960786751 3.0960786751 3.0960786751 3.0960786751 3.0960786751 3.0960786751 3.0960786751 3.0960786751 3.0960786751 
3.0960786751 3.0960786751 3.0960786751 3.0960786751 3.0960786751 3.0960786751 3.0960786751 3.0960786751 3.0960786751 
3.0960786751 3.0960786751 3.0960786751 3.0960786751 3.0960786751 3.0960786751 3.0960786751 3.0960786751 3.0960786751 
3.0960786751 3.0960786751 3.0960786751 3.0960786751 3.0960786751 3.0960786751 3.0960786751 3.0960786751 3.0960786751 
3.0960786751 3.0960786751 3.0960786751 3.0960786751 3.0960786751 3.0960786751 3.0960786751 3.0960786751 3.0960786751 
3.0960786751 3.0960786751 3.0960786751 3.0960786751 3.0960786751 3.0960786751 3.0960786751 3.0960786751 3.0960786751 
3.0960786751 3.0960786751 3.0960786751 3.0960786751 3.0960786751 3.0960786751 3.0960786751 3.0960786751 3.0960786751 
3.0960786751 3.0960786751 3.0960786751 3.0960786751 3.0960786751 3.0960786751 3.0960786751 3.0960786751 3.0960786751 
3.0960786751 3.0960786751 3.0960786751 3.0960786751 3.0960786751 3.0960786751 3.0960786751 3.0960786751 3.0960786751 
3.0960786751 3.0960786751 3.0960786751 3.0960786751 3.0960786751 3.0960786751 3.0960786751 3.0960786751 3.0960786751 
3.0960786751 3.0960786751 3.0960786751 3.0960786751 3.0960786751 3.0960786751 3.0960786751 3.0960786751 3.0960786751 
3.0960786751 3.0960786751 3.0960786751 3.0960786751 3.1086334758 3.1086334758 3.1086334758 3.1086334758 3.0960786751 
3.0960786751 3.1086334758 3.1086334758 3.1086334758 3.1086334758 3.1086334758 3.1086334758 3.0960786751 3.0960786751 
3.1086334758 3.1086334758 3.1086334758 3.0960786751 3.0835238744 3.0835238744 3.0835238744 3.0835238744 3.0835238744 
3.0835238744 3.0835238744 3.0835238744 3.0835238744 3.0835238744 3.0835238744 3.0835238744 3.0835238744 3.0960786751 
3.1086334758 3.1086334758 3.1086334758 3.0960786751 3.0835238744 3.0835238744 3.0835238744 3.0960786751 3.1086334758 
3.1086334758 3.1086334758 3.0960786751 3.0960786751 3.0835238744 3.0835238744 3.0835238744 3.0835238744 3.0960786751 
3.1086334758 3.1086334758 3.1086334758 3.0960786751 3.0835238744 3.0835238744 3.0835238744 3.0835238744 3.0835238744 
3.0835238744 3.0960786751 3.1086334758 3.1086334758 3.1086334758 3.0960786751 3.0835238744 3.0835238744 3.0835238744 
3.0835238744 3.0835238744 3.0835238744 3.0960786751 3.1086334758 3.1086334758 3.0960786751 3.0835238744 3.0835238744 
3.0835238744 3.0835238744 3.0835238744 3.0835238744 3.0960786751 3.1086334758 3.1086334758 3.1086334758 3.1086334758 
3.0960786751 3.0835238744 3.0835238744 3.0835238744 3.0835238744 3.0835238744 3.0835238744 3.0835238744 3.0960786751 
3.1086334758 3.1086334758 3.0960786751 3.0835238744 3.0835238744 3.0835238744 3.0835238744 3.0960786751 3.1086334758 
3.1086334758 3.1086334758 3.0960786751 3.0835238744 3.0835238744 3.0835238744 3.0835238744 3.0835238744 3.0835238744 
3.0960786751 3.1086334758 3.1086334758 3.1086334758 3.0960786751 3.0835238744 3.0835238744 3.0835238744 3.0835238744 
3.0835238744 3.0835238744 3.0960786751 3.1086334758 3.1086334758 3.0960786751 3.0835238744 3.0835238744 3.0835238744 
3.0835238744 3.0835238744 3.0960786751 3.1086334758 3.1086334758 3.0960786751 3.0835238744 3.0835238744 3.0835238744 
3.0835238744 3.0835238744 3.0835238744 3.0960786751 3.1086334758 3.1086334758 3.1086334758 3.0960786751 3.0835238744 
3.0835238744 3.0835238744 3.0835238744 3.0835238744 3.0960786751 3.1086334758 3.1086334758 3.1086334758 3.0960786751 
3.0960786751 3.0835238744 3.0835238744 3.0835238744 3.0835238744 3.0835238744 3.0960786751 3.1086334758 3.1086334758 
3.1086334758 3.0960786751 3.0835238744 3.0835238744 3.0835238744 3.0835238744 3.0835238744 3.0960786751 3.1086334758 
3.1086334758 3.1086334758 3.1086334758 3.0960786751 3.0835238744 3.0835238744 3.0835238744 3.0835238744 3.0835238744 
3.0960786751 3.1086334758 3.1086334758 3.1086334758 3.1086334758 3.0960786751 3.0835238744 3.0835238744 3.0835238744 
3.0835238744 3.0835238744 3.0960786751 3.1086334758 3.1086334758 3.0960786751 3.0835238744 3.0835238744 3.0835238744 
3.0835238744 3.0835238744 3.0960786751 3.1086334758 3.1086334758 3.1211882764 3.1211882764 3.1211882764 3.1211882764 
3.1211882764 3.1086334758 3.1086334758 3.0960786751 3.0835238744 3.0835238744 3.0835238744 3.0835238744 3.0835238744 
3.0835238744 3.0960786751 3.1086334758 3.1211882764 3.1211882764 3.1211882764 3.1211882764 3.1211882764 3.1086334758 
3.0960786751 3.0835238744 3.0835238744 3.0835238744 3.0835238744 3.0835238744 3.0835238744 3.0960786751 3.1086334758 
3.1211882764 3.1211882764 3.1086334758 3.1086334758 3.0960786751 3.0835238744 3.0835238744 3.0835238744 3.0835238744 
3.0960786751 3.1086334758 3.1211882764 3.1211882764 3.1211882764 3.1086334758 3.0960786751 3.0835238744 3.0835238744 
3.0835238744 3.0835238744 3.0960786751 3.1086334758 3.1211882764 3.1211882764 3.1211882764 3.1086334758 3.1086334758 
3.0960786751 3.0960786751 3.0835238744 3.0835238744 3.0835238744 3.0835238744 3.0835238744 3.0835238744 3.0960786751 
3.1086334758 3.1086334758 3.1211882764 3.1211882764 3.1086334758 3.0960786751 3.0835238744 3.0835238744 3.0835238744 
3.0835238744 3.0960786751 3.1086334758 3.1211882764 3.1211882764 3.1211882764 3.1211882764 3.1086334758 3.1086334758 
3.0960786751 3.0835238744 3.0835238744 3.0835238744 3.0835238744 3.0960786751 3.1086334758 3.1211882764 3.1211882764 
3.1086334758 3.0960786751 3.0835238744 3.0835238744 3.0835238744 3.0835238744 3.0835238744 3.0960786751 3.1086334758 
3.1211882764 3.1211882764 3.1211882764 3.1086334758 3.1086334758 3.0960786751 3.0835238744 3.0835238744 3.0835238744 
3.0835238744 3.0960786751 3.1086334758 3.1211882764 3.1211882764 3.1211882764 3.1086334758 3.0960786751 3.0835238744 
3.0835238744 3.0835238744 3.0835238744 3.0835238744 3.0960786751 3.1086334758 3.1211882764 3.1337430771 3.1337430771 
3.1337430771 3.1211882764 3.1086334758 3.0960786751 3.0835238744 3.0835238744 3.0835238744 3.0835238744 3.0835238744 
3.0960786751 3.1086334758 3.1211882764 3.1337430771 3.1337430771 3.1337430771 3.1211882764 3.1086334758 3.0960786751 
3.0835238744 3.0835238744 3.0835238744 3.0835238744 3.0835238744 3.0960786751 3.1086334758 3.1211882764 3.1337430771 
3.1337430771 3.1337430771 3.1211882764 3.1086334758 3.0960786751 3.0835238744 3.0835238744 3.0835238744 3.0835238744 
3.0835238744 3.0835238744 3.0835238744 3.0960786751 3.1086334758 3.1211882764 3.1211882764 3.1337430771 3.1337430771 
3.1337430771 3.1337430771 3.1211882764 3.1086334758 3.0960786751 3.0835238744 3.0835238744 3.0835238744 3.0835238744 
3.0835238744 3.0835238744 3.0835238744 3.0835238744 3.0835238744 3.0835238744 3.0835238744 3.0835238744 3.0960786751 
3.1086334758 3.1211882764 3.1337430771 3.1337430771 3.1337430771 3.1337430771 3.1211882764 3.1086334758 3.1086334758 
3.0960786751 3.0960786751 3.0835238744 3.0835238744 3.0835238744 3.0835238744 3.0835238744 3.0835238744 3.0835238744 
3.0835238744 3.0835238744 3.0835238744 3.0835238744 3.0835238744 3.0835238744 3.0835238744 3.0960786751 3.1086334758 
3.1211882764 3.1337430771 3.1337430771 3.1211882764 3.1086334758 3.0960786751 3.0835238744 3.0835238744 3.0835238744 
3.0835238744 3.0835238744 3.0835238744 3.0835238744 3.0835238744 3.0835238744 3.0835238744 3.0835238744 3.0835238744 
3.0835238744 3.0960786751 3.1086334758 3.1211882764 3.1337430771 3.1337430771 3.1211882764 3.1086334758 3.0960786751 
3.0835238744 3.0835238744 3.0835238744 3.0835238744 3.0835238744 3.0835238744 3.0835238744 3.0835238744 3.0835238744 
3.0835238744 3.0835238744 3.0835238744 3.0709690738 3.0709690738 3.0709690738 3.0709690738 3.0709690738 3.0835238744 
3.0835238744 3.0960786751 3.1086334758 3.1086334758 3.1211882764 3.1337430771 3.1337430771 3.1337430771 3.1211882764 
3.1086334758 3.0960786751 3.0960786751 3.0835238744 3.0835238744 3.0835238744 3.0835238744 3.0835238744 3.0835238744 
3.0835238744 3.0835238744 3.0835238744 3.0835238744 3.0835238744 3.0835238744 3.0835238744 3.0709690738 3.0709690738 
3.0709690738 3.0709690738 3.0709690738 3.0709690738 3.0835238744 3.0960786751 3.1086334758 3.1211882764 3.1211882764 
3.1337430771 3.1337430771 3.1337430771 3.1211882764 3.1086334758 3.1086334758 3.0960786751 3.0835238744 3.0835238744 
3.0835238744 3.0835238744 3.0835238744 3.0835238744 3.0835238744 3.0835238744 3.0835238744 3.0835238744 3.0835238744 
3.0835238744 3.0835238744 3.0835238744 3.0709690738 3.0709690738 3.0709690738 3.0835238744 3.0960786751 3.1086334758 
3.1211882764 3.1337430771 3.1462978778 3.1462978778 3.1462978778 3.1337430771 3.1211882764 3.1211882764 3.1086334758 
3.0960786751 3.0835238744 3.0835238744 3.0835238744 3.0835238744 3.0835238744 3.0835238744 3.0835238744 3.0835238744 
3.0835238744 3.0835238744 3.0835238744 3.0709690738 3.0709690738 3.0709690738 3.0835238744 3.0960786751 3.1086334758 
3.1211882764 3.1337430771 3.1462978778 3.1462978778 3.1462978778 3.1462978778 3.1337430771 3.1211882764 3.1211882764 
3.1211882764 3.1211882764 3.1086334758 3.0960786751 3.0835238744 3.0835238744 3.0835238744 3.0835238744 3.0835238744 
3.0835238744 3.0835238744 3.0835238744 3.0835238744 3.0835238744 3.0835238744 3.0835238744 3.0835238744 3.0835238744 
3.0835238744 3.0835238744 3.0709690738 3.0709690738 3.0709690738 3.0709690738 3.0835238744 3.0960786751 3.1086334758 
3.1211882764 3.1337430771 3.1337430771 3.1462978778 3.1462978778 3.1462978778 3.1337430771 3.1211882764 3.1211882764 
3.1211882764 3.1211882764 3.1211882764 3.1086334758 3.0960786751 3.0835238744 3.0835238744 3.0835238744 3.0835238744 
3.0835238744 3.0835238744 3.0835238744 3.0835238744 3.0835238744 3.0835238744 3.0835238744 3.0835238744 3.0835238744 
3.0709690738 3.0709690738 3.0709690738 3.0835238744 3.0960786751 3.1086334758 3.1211882764 3.1337430771 3.1462978778 
3.1462978778 3.1462978778 3.1337430771 3.1337430771 3.1211882764 3.1211882764 3.1211882764 3.1211882764 3.1211882764 
3.1086334758 3.0960786751 3.0835238744 3.0835238744 3.0835238744 3.0835238744 3.0835238744 3.0835238744 3.0835238744 
3.0835238744 3.0835238744 3.0835238744 3.0835238744 3.0835238744 3.0709690738 3.0709690738 3.0709690738 3.0835238744 
3.0960786751 3.1086334758 3.1211882764 3.1211882764 3.1337430771 3.1462978778 3.1462978778 3.1462978778 3.1462978778 
3.1337430771 3.1211882764 3.1211882764 3.1211882764 3.1086334758 3.0960786751 3.0835238744 3.0835238744 3.0835238744 
3.0835238744 3.0835238744 3.0835238744 3.0835238744 3.0835238744 3.0835238744 3.0835238744 3.0709690738 3.0709690738 
3.0835238744 3.0835238744 3.0960786751 3.1086334758 3.1211882764 3.1337430771 3.1337430771 3.1462978778 3.1462978778 
3.1337430771 3.1211882764 3.1211882764 3.1211882764 3.1086334758 3.0960786751 3.0835238744 3.0835238744 3.0835238744 
3.0835238744 3.0835238744 3.0835238744 3.0835238744 3.0835238744 3.0709690738 3.0709690738 3.0709690738 3.0709690738 
3.0835238744 3.0960786751 3.1086334758 3.1211882764 3.1337430771 3.1462978778 3.1462978778 3.1462978778 3.1337430771 
3.1211882764 3.1211882764 3.1211882764 3.1211882764 3.1086334758 3.0960786751 3.0835238744 3.0835238744 3.0835238744 
3.0835238744 3.0835238744 3.0835238744 3.0835238744 3.0835238744 3.0835238744 3.0835238744 3.0709690738 3.0709690738 
3.0835238744 3.0960786751 3.1086334758 3.1211882764 3.1337430771 3.1462978778 3.1462978778 3.1337430771 3.1211882764 
3.1211882764 3.1211882764 3.1086334758 3.0960786751 3.0835238744 3.0835238744 3.0835238744 3.0835238744 3.0835238744 
3.0835238744 3.0835238744 3.0835238744 3.0709690738 3.0709690738 3.0835238744 3.0960786751 3.1086334758 3.1086334758 
3.1211882764 3.1337430771 3.1337430771 3.1462978778 3.1462978778 3.1337430771 3.1211882764 3.1211882764 3.1211882764 
3.1086334758 3.0960786751 3.0835238744 3.0835238744 3.0835238744 3.0835238744 3.0835238744 3.0835238744 3.0835238744 
3.0835238744 3.0835238744 3.0835238744 3.0835238744 3.0709690738 3.0584142731 3.0584142731 3.0584142731 3.0584142731 
3.0584142731 3.0584142731 3.0709690738 3.0835238744 3.0960786751 3.1086334758 3.1211882764 3.1337430771 3.1462978778 
3.1462978778 3.1588526785 3.1588526785 3.1588526785 3.1588526785 3.1588526785 3.1462978778 3.1462978778 3.1337430771 
3.1211882764 3.1211882764 3.1211882764 3.1086334758 3.0960786751 3.0835238744 3.0835238744 3.0835238744 3.0835238744 
3.0835238744 3.0835238744 3.0835238744 3.0835238744 3.0835238744 3.0835238744 3.0835238744 3.0835238744 3.0835238744 
3.0835238744 3.0709690738 3.0584142731 3.0584142731 3.0584142731 3.0584142731 3.0709690738 3.0709690738 3.0835238744 
3.0960786751 3.1086334758 3.1211882764 3.1211882764 3.1337430771 3.1462978778 3.1588526785 3.1588526785 3.1588526785 
3.1462978778 3.1337430771 3.1211882764 3.1211882764 3.1211882764 3.1086334758 3.0960786751 3.0835238744 3.0835238744 
3.0835238744 3.0835238744 3.0835238744 3.0835238744 3.0835238744 3.0835238744 3.0835238744 3.0835238744 3.0835238744 
3.0835238744 3.0835238744 3.0835238744 3.0835238744 3.0709690738 3.0584142731 3.0584142731 3.0584142731 3.0709690738 
3.0835238744 3.0960786751 3.1086334758 3.1211882764 3.1337430771 3.1337430771 3.1462978778 3.1462978778 3.1588526785 
3.1588526785 3.1588526785 3.1588526785 3.1462978778 3.1337430771 3.1211882764 3.1211882764 3.1211882764 3.1086334758 
3.0960786751 3.0835238744 3.0709690738 3.0709690738 3.0709690738 3.0835238744 3.0835238744 3.0835238744 3.0835238744 
3.0835238744 3.0835238744 3.0835238744 3.0835238744 3.0709690738 3.0584142731 3.0584142731 3.0584142731 3.0709690738 
3.0835238744 3.0960786751 3.1086334758 3.1211882764 3.1337430771 3.1462978778 3.1588526785 3.1588526785 3.1588526785 
3.1462978778 3.1337430771 3.1211882764 3.1211882764 3.1211882764 3.1211882764 3.1086334758 3.0960786751 3.0835238744 
3.0709690738 3.0709690738 3.0709690738 3.0709690738 3.0835238744 3.0835238744 3.0835238744 3.0835238744 3.0835238744 
3.0835238744 3.0835238744 3.0709690738 3.0584142731 3.0584142731 3.0709690738 3.0835238744 3.0960786751 3.1086334758 
3.1211882764 3.1337430771 3.1462978778 3.1462978778 3.1588526785 3.1588526785 3.1462978778 3.1337430771 3.1211882764 
3.1211882764 3.1211882764 3.1086334758 3.0960786751 3.0835238744 3.0709690738 3.0709690738 3.0709690738 3.0709690738 
3.0709690738 3.0835238744 3.0835238744 3.0835238744 3.0835238744 3.0835238744 3.0835238744 3.0709690738 3.0584142731 
3.0458594724 3.0458594724 3.0458594724 3.0458594724 3.0584142731 3.0709690738 3.0835238744 3.0960786751 3.1086334758 
3.1211882764 3.1211882764 3.1337430771 3.1462978778 3.1588526785 3.1588526785 3.1588526785 3.1462978778 3.1337430771 
3.1211882764 3.1211882764 3.1211882764 3.1086334758 3.0960786751 3.0835238744 3.0709690738 3.0709690738 3.0709690738 
3.0709690738 3.0709690738 3.0709690738 3.0709690738 3.0835238744 3.0835238744 3.0835238744 3.0835238744 3.0709690738 
3.0584142731 3.0458594724 3.0458594724 3.0458594724 3.0458594724 3.0458594724 3.0584142731 3.0584142731 3.0709690738 
3.0835238744 3.0960786751 3.1086334758 3.1086334758 3.1211882764 3.1337430771 3.1337430771 3.1462978778 3.1588526785 
3.1588526785 3.1462978778 3.1337430771 3.1211882764 3.1211882764 3.1211882764 3.1086334758 3.0960786751 3.0835238744 
3.0709690738 3.0709690738 3.0709690738 3.0709690738 3.0709690738 3.0709690738 3.0709690738 3.0709690738 3.0709690738 
3.0709690738 3.0709690738 3.0709690738 3.0835238744 3.0835238744 3.0835238744 3.0709690738 3.0584142731 3.0584142731 
3.0458594724 3.0458594724 3.0584142731 3.0709690738 3.0835238744 3.0960786751 3.1086334758 3.1211882764 3.1337430771 
3.1462978778 3.1462978778 3.1588526785 3.1588526785 3.1588526785 3.1588526785 3.1462978778 3.1337430771 3.1211882764 
3.1211882764 3.1211882764 3.1211882764 3.1086334758 3.0960786751 3.0835238744 3.0709690738 3.0709690738 3.0709690738 
3.0709690738 3.0709690738 3.0709690738 3.0709690738 3.0709690738 3.0709690738 3.0709690738 3.0709690738 3.0709690738 
3.0709690738 3.0709690738 3.0709690738 3.0709690738 3.0709690738 3.0709690738 3.0709690738 3.0709690738 3.0709690738 
3.0835238744 3.0835238744 3.0835238744 3.0709690738 3.0584142731 3.0458594724 3.0333046717 3.0333046717 3.0333046717 
3.0458594724 3.0584142731 3.0709690738 3.0835238744 3.0960786751 3.0960786751 3.1086334758 3.1211882764 3.1337430771 
3.1462978778 3.1588526785 2.945421067 2.945421067 2.9579758677 2.9579758677 2.9705306684 2.9705306684 2.9830854691 
2.9830854691 2.9956402697 2.9956402697 3.0081950704 3.0081950704 3.0207498711 3.0207498711 3.0333046717 3.0333046717 
3.0458594724 3.0458594724 3.0584142731 3.0584142731 3.0709690738 3.0709690738 3.0835238744 3.0835238744 3.0960786751 
3.0960786751 3.1086334758 3.1086334758 3.1211882764 3.1211882764 3.1337430771 3.1337430771 3.1462978778 3.1462978778 
3.1588526785 3.1588526785 2.945421067 2.9579758677 2.9705306684 2.9830854691 2.9956402697 3.0081950704 3.0207498711 
3.0333046717 3.0458594724 3.0584142731 3.0709690738 3.0835238744 3.0960786751 3.1086334758 3.1211882764 3.1337430771 
3.1462978778 3.1588526785 2.945421067 2.9579758677 2.9705306684 2.9830854691 2.9956402697 3.0081950704 3.0207498711 
3.0333046717 3.0458594724 3.0584142731 3.0709690738 3.0835238744 3.0960786751 3.1086334758 3.1211882764 3.1337430771 
3.1462978778 3.1588526785 2.945421067 2.9579758677 2.9705306684 2.9830854691 2.9956402697 3.0081950704 3.0207498711 
3.0333046717 3.0458594724 3.0584142731 3.0709690738 3.0835238744 3.0960786751 3.1086334758 3.1211882764 3.1337430771 
3.1462978778 3.1588526785 2.945421067 2.9579758677 2.9705306684 2.9830854691 2.9956402697 3.0081950704 3.0207498711 
3.0333046717 3.0458594724 3.0584142731 3.0709690738 3.0835238744 3.0960786751 3.1086334758 3.1211882764 3.1337430771 
3.1462978778 3.1588526785 2.945421067 2.9579758677 2.9705306684 2.9830854691 2.9956402697 3.0081950704 3.0207498711 
3.0333046717 3.0458594724 3.0584142731 3.0709690738 3.0835238744 3.0960786751 3.1086334758 3.1211882764 3.1337430771 
3.1462978778 3.1588526785 2.945421067 2.9579758677 2.9705306684 2.9830854691 2.9956402697 3.0081950704 3.0207498711 
3.0333046717 3.0458594724 3.0584142731 3.0709690738 3.0835238744 3.0960786751 3.1086334758 3.1211882764 3.1337430771 
3.1462978778 3.1588526785 2.945421067 2.9579758677 2.9705306684 2.9830854691 2.9956402697 3.0081950704 3.0207498711 
3.0333046717 3.0458594724 3.0584142731 3.0709690738 3.0835238744 3.0960786751 3.1086334758 3.1211882764 3.1337430771 
3.1462978778 3.1588526785 2.945421067 2.9579758677 2.9705306684 2.9830854691 2.9956402697 3.0081950704 3.0207498711 
3.0333046717 3.0458594724 3.0584142731 3.0709690738 3.0835238744 3.0960786751 3.1086334758 3.1211882764 3.1337430771 
3.1462978778 3.1588526785 2.945421067 2.9579758677 2.9705306684 2.9830854691 2.9956402697 3.0081950704 3.0207498711 
3.0333046717 3.0458594724 3.0584142731 3.0709690738 3.0835238744 3.0960786751 3.1086334758 3.1211882764 3.1337430771 
3.1462978778 2.945421067 2.9579758677 2.9705306684 2.9830854691 2.9956402697 3.0081950704 3.0207498711 3.0333046717 
3.0458594724 3.0584142731 3.0709690738 3.0835238744 3.0960786751 3.1086334758 3.1211882764 3.1337430771 2.945421067 
2.9579758677 2.9705306684 2.9830854691 2.9956402697 3.0081950704 3.0207498711 3.0333046717 3.0458594724 3.0584142731 