# vtk DataFile Version 4.2
vtk output
ASCII
DATASET POLYDATA
POINTS 8780 float
1544.04 -2669.12 0 1553.88 -2671.83 0 1558.25 -2669.11 0 
1485.67 -2652.12 0 1516.88 -2663.79 0 1585.59 -2652.11 0 
1440.24 -2635.12 0 1442.88 -2636.11 0 1479.88 -2649.95 0 
1590.89 -2648.82 0 1612.93 -2635.11 0 1394.81 -2618.12 0 
1405.88 -2622.26 0 1627.89 -2625.81 0 1640.27 -2618.11 0 
1349.38 -2601.12 0 1368.88 -2608.42 0 1664.89 -2602.8 0 
1667.61 -2601.11 0 1303.94 -2584.12 0 1331.88 -2594.57 0 
1694.95 -2584.11 0 1258.51 -2567.12 0 1294.88 -2580.73 0 
1701.89 -2579.79 0 1722.3 -2567.1 0 1214.28 -2550.12 0 
1220.88 -2553.04 0 1257.88 -2566.88 0 1738.9 -2556.78 0 
1749.64 -2550.1 0 1180.16 -2533.12 0 1183.88 -2535.24 0 
1775.9 -2533.77 0 1776.98 -2533.1 0 1150.33 -2516.12 0 
1804.32 -2516.1 0 1120.5 -2499.12 0 1146.88 -2514.15 0 
1812.9 -2510.76 0 1831.66 -2499.1 0 1090.67 -2482.12 0 
1109.88 -2493.07 0 1849.9 -2487.75 0 1859.81 -2482.1 0 
1060.83 -2465.12 0 1072.88 -2471.98 0 1886.34 -2465.09 0 
1031 -2448.12 0 1035.88 -2450.9 0 1886.91 -2464.74 0 
1923.91 -2451.95 0 1938.82 -2448.09 0 1001.17 -2431.12 0 
1960.91 -2442.38 0 1997.91 -2432.82 0 2002.27 -2431.09 0 
973.105 -2414.12 0 998.884 -2429.81 0 2025.82 -2414.09 0 
957.782 -2397.11 0 961.884 -2406.88 0 2034.91 -2399 0 
2035.41 -2397.09 0 950.638 -2380.11 0 2039.86 -2380.08 0 
943.494 -2363.11 0 2044.31 -2363.08 0 936.35 -2346.11 0 
2048.75 -2346.08 0 929.206 -2329.11 0 2053.2 -2329.08 0 
922.062 -2312.11 0 924.889 -2318.84 0 2057.64 -2312.08 0 
914.919 -2295.11 0 2064.36 -2295.08 0 907.775 -2278.11 0 
2071.92 -2283.58 0 2075.54 -2278.08 0 900.631 -2261.11 0 
2086.71 -2261.08 0 893.487 -2244.11 0 2097.88 -2244.08 0 
886.343 -2227.11 0 887.893 -2230.79 0 2108.93 -2227.27 0 
2109.05 -2227.07 0 879.199 -2210.11 0 2120.22 -2210.07 0 
872.055 -2193.11 0 2131.4 -2193.07 0 864.912 -2176.1 0 
2142.57 -2176.07 0 857.768 -2159.1 0 2145.93 -2170.95 0 
2153.74 -2159.07 0 850.624 -2142.1 0 850.897 -2142.75 0 
2164.91 -2142.07 0 843.48 -2125.1 0 2176.08 -2125.07 0 
837.274 -2108.1 0 2182.93 -2114.64 0 2187.26 -2108.06 0 
833.077 -2091.1 0 2198.43 -2091.06 0 829.263 -2074.1 0 
2209.6 -2074.06 0 -740.141 -2065.04 0 -756.746 -2057.14 0 
-703.141 -2068.11 0 -666.139 -2063.22 0 -629.138 -2058.33 0 
-620.087 -2057.14 0 825.45 -2057.1 0 2219.94 -2058.33 0 
2220.77 -2057.06 0 -777.141 -2047.44 0 -792.474 -2040.14 0 
-592.137 -2053.44 0 -555.135 -2048.56 0 -518.134 -2043.67 0 
-491.401 -2040.13 0 821.637 -2040.1 0 2231.95 -2040.06 0 
-814.141 -2029.83 0 -824.844 -2023.14 0 -481.133 -2038.78 0 
-444.132 -2033.89 0 -407.13 -2029 0 -370.129 -2024.11 0 
-362.715 -2023.13 0 817.824 -2023.1 0 2243.12 -2023.06 0 
-851.141 -2006.75 0 -851.723 -2006.14 0 -333.128 -2019.22 0 
-296.126 -2014.33 0 -259.125 -2009.44 0 -244.064 -2006.12 0 
814.011 -2006.1 0 2254.29 -2006.06 0 -867.911 -1989.14 0 
-222.124 -2000.51 0 -190.276 -1989.12 0 810.198 -1989.1 0 
813.904 -2005.62 0 2256.94 -2002.02 0 2265.46 -1989.06 0 
-884.098 -1972.14 0 -185.122 -1987.28 0 -148.12 -1974.04 0 
-142.743 -1972.12 0 806.384 -1972.09 0 2276.63 -1972.05 0 
-888.14 -1967.89 0 -900.285 -1955.14 0 -111.118 -1960.81 0 
-100.705 -1955.12 0 802.571 -1955.09 0 2287.81 -1955.05 0 
-916.472 -1938.14 0 -74.1162 -1941.66 0 -72.0899 -1938.12 0 
798.758 -1938.09 0 2293.95 -1945.71 0 2298.98 -1938.05 0 
-925.138 -1929.04 0 -932.659 -1921.14 0 -62.3728 -1921.11 0 
794.945 -1921.09 0 2310.15 -1921.05 0 -948.846 -1904.14 0 
-52.6558 -1904.11 0 791.132 -1904.09 0 2321.32 -1904.05 0 
-962.137 -1890.18 0 -965.033 -1887.14 0 -42.9387 -1887.11 0 
787.318 -1887.09 0 2330.95 -1889.4 0 2332.34 -1887.05 0 
-981.221 -1870.14 0 -37.1114 -1876.92 0 -33.2215 -1870.11 0 
783.505 -1870.09 0 2340.16 -1870.05 0 -997.408 -1853.14 0 
-23.5044 -1853.11 0 779.692 -1853.09 0 2345.41 -1853.05 0 
-999.136 -1851.32 0 -1013.59 -1836.14 0 -13.7873 -1836.11 0 
775.879 -1836.09 0 776.913 -1840.7 0 2347.1 -1836.04 0 
-1029.78 -1819.13 0 -4.07026 -1819.11 0 772.066 -1819.09 0 
2347.76 -1819.04 0 -1036.13 -1812.46 0 -1045.97 -1802.13 0 
-0.106592 -1812.17 0 5.6469 -1802.11 0 767.686 -1802.09 0 
2348.42 -1802.04 0 -1062.16 -1785.13 0 15.364 -1785.1 0 
759.987 -1785.08 0 2349.08 -1785.04 0 -1073.13 -1773.6 0 
-1078.34 -1768.13 0 25.0811 -1768.1 0 754.467 -1768.08 0 
2349.73 -1768.04 0 -1094.53 -1751.13 0 34.7982 -1751.1 0 
748.664 -1751.08 0 2350.39 -1751.04 0 -1110.13 -1734.75 0 
-1110.72 -1734.13 0 36.8982 -1747.43 0 44.5153 -1734.1 0 
741.299 -1734.08 0 2351.05 -1734.04 0 -1126.9 -1717.13 0 
54.2324 -1717.1 0 733.807 -1717.08 0 739.918 -1730.89 0 
2351.71 -1717.04 0 -1143.09 -1700.13 0 63.9495 -1700.1 0 
726.569 -1700.08 0 2352.37 -1700.04 0 -1147.13 -1695.89 0 
-1159.28 -1683.13 0 73.6666 -1683.1 0 719.095 -1683.08 0 
2353.02 -1683.04 0 -1175.47 -1666.13 0 73.903 -1682.68 0 
83.3837 -1666.1 0 711.184 -1666.08 0 2353.68 -1666.03 0 
-1184.13 -1657.03 0 -1191.65 -1649.13 0 93.1008 -1649.09 0 
702.981 -1649.08 0 2354.34 -1649.03 0 -1207.84 -1632.13 0 
102.818 -1632.09 0 699.041 -1632.08 0 702.922 -1648.91 0 
2355.47 -1632.03 0 -1221.13 -1618.17 0 -1224.03 -1615.13 0 
110.908 -1617.94 0 112.535 -1615.09 0 695.255 -1615.08 0 
2357.84 -1615.03 0 -1240.21 -1598.13 0 121.901 -1598.09 0 
691.47 -1598.08 0 2360.33 -1598.03 0 -1256.4 -1581.13 0 
130.369 -1581.09 0 687.685 -1581.07 0 2362.82 -1581.03 0 
-1258.13 -1579.19 0 -1271.56 -1564.13 0 138.401 -1564.09 0 
683.9 -1564.07 0 2365.31 -1564.03 0 -1285.79 -1547.13 0 
146.433 -1547.09 0 680.115 -1547.07 0 1284.11 -1547.06 0 
1294.94 -1548.77 0 1331.94 -1551.06 0 1368.95 -1548.99 0 
1403.65 -1547.05 0 2367.8 -1547.03 0 -1295.13 -1535.97 0 
-1300.01 -1530.13 0 147.913 -1543.95 0 154.464 -1530.09 0 
676.33 -1530.07 0 1241.23 -1530.06 0 1257.94 -1543.22 0 
1405.95 -1546.92 0 1442.95 -1544.85 0 1479.95 -1542.78 0 
1516.95 -1540.71 0 1553.95 -1538.64 0 1590.95 -1534.98 0 
1595.67 -1530.05 0 2367.97 -1545.84 0 2370.29 -1530.03 0 
-1314.24 -1513.12 0 162.496 -1513.08 0 672.545 -1513.07 0 
1217.43 -1513.06 0 1220.94 -1515.7 0 1606.56 -1513.05 0 
2372.78 -1513.02 0 -1328.46 -1496.12 0 170.528 -1496.08 0 
668.76 -1496.07 0 1194.89 -1496.06 0 1617.45 -1496.04 0 
2375.27 -1496.02 0 -1332.12 -1491.75 0 -1342.5 -1479.12 0 
178.56 -1479.08 0 664.974 -1479.07 0 665.931 -1483.36 0 
1172.35 -1479.06 0 1183.94 -1487.8 0 1627.96 -1479.63 0 
1628.33 -1479.04 0 2377.76 -1479.02 0 -1352.65 -1462.12 0 
184.919 -1465.62 0 186.592 -1462.08 0 661.189 -1462.07 0 
1149.81 -1462.05 0 1639.22 -1462.04 0 2380.25 -1462.02 0 
-1360.05 -1445.12 0 194.623 -1445.08 0 657.404 -1445.07 0 
1127.26 -1445.05 0 1146.95 -1459.9 0 1650.11 -1445.04 0 
2382.74 -1445.02 0 -1365.43 -1428.12 0 202.655 -1428.08 0 
653.619 -1428.07 0 1104.72 -1428.05 0 1109.95 -1431.99 0 
1661 -1428.04 0 2385.22 -1428.02 0 -1369.12 -1415.31 0 
-1370.33 -1411.12 0 210.687 -1411.08 0 649.834 -1411.07 0 
1082.18 -1411.05 0 1664.96 -1421.85 0 1672.22 -1411.04 0 
2387.71 -1411.02 0 -1375.23 -1394.12 0 218.719 -1394.08 0 
646.049 -1394.06 0 1060.29 -1394.05 0 1072.95 -1403.98 0 
1683.2 -1394.04 0 2390.2 -1394.02 0 -1380.13 -1377.12 0 
221.924 -1387.29 0 225.061 -1377.07 0 642.264 -1377.06 0 
1038.63 -1377.05 0 1693.65 -1377.04 0 2392.69 -1377.02 0 
-1385.03 -1360.12 0 229.688 -1360.07 0 638.479 -1360.06 0 
1016.96 -1360.05 0 1035.95 -1374.95 0 1701.97 -1364.06 0 
1705.45 -1360.03 0 2395.18 -1360.02 0 -1389.94 -1343.12 0 
233.704 -1343.07 0 634.694 -1343.06 0 996.696 -1343.05 0 
998.948 -1345.92 0 1719.59 -1343.03 0 2397.67 -1343.01 0 
-1394.84 -1326.12 0 238.678 -1326.07 0 630.908 -1326.06 0 
983.302 -1326.05 0 1732.88 -1326.03 0 2400.25 -1326.01 0 
-1399.74 -1309.11 0 240.906 -1309.07 0 625.427 -1309.06 0 
628.939 -1319.97 0 969.847 -1309.05 0 1738.97 -1317.9 0 
1743.76 -1309.03 0 2402.94 -1309.01 0 -1404.64 -1292.11 0 
242.416 -1292.07 0 616.535 -1292.06 0 957.356 -1292.05 0 
961.95 -1299.11 0 1750.92 -1292.03 0 2404.99 -1293.05 0 
2405.14 -1292.01 0 -1406.11 -1287.01 0 -1409.54 -1275.11 0 
243.914 -1275.07 0 607.643 -1275.06 0 946.292 -1275.05 0 
1756.41 -1275.03 0 2407.63 -1275.01 0 -1414.44 -1258.11 0 
245.402 -1258.07 0 598.752 -1258.06 0 935.227 -1258.05 0 
1762.87 -1258.03 0 2410.12 -1258.01 0 -1419.35 -1241.11 0 
246.879 -1241.07 0 590.605 -1241.06 0 591.943 -1244.49 0 
924.163 -1241.05 0 924.952 -1242.26 0 1771.75 -1241.03 0 
2413.78 -1241.01 0 -1424.25 -1224.11 0 248.4 -1224.07 0 
586.642 -1224.06 0 913.098 -1224.05 0 1775.98 -1232.94 0 
1780.64 -1224.02 0 2416.78 -1224.01 0 -1429.15 -1207.11 0 
249.961 -1207.06 0 582.68 -1207.06 0 902.034 -1207.05 0 
1789.52 -1207.02 0 2418.15 -1207.01 0 -1434.05 -1190.11 0 
251.522 -1190.06 0 578.717 -1190.05 0 892.268 -1190.05 0 
1798.4 -1190.02 0 2419.47 -1190 0 -1438.95 -1173.11 0 
253.083 -1173.06 0 574.754 -1173.05 0 883.745 -1173.05 0 
887.954 -1181.81 0 1807.29 -1173.02 0 2421.65 -1173 0 
-1443.11 -1158.7 0 -1443.85 -1156.11 0 254.644 -1156.06 0 
570.792 -1156.05 0 875.582 -1156.04 0 1812.98 -1162.13 0 
1816.17 -1156.02 0 2423.39 -1156 0 -1448.76 -1139.11 0 
256.205 -1139.06 0 566.829 -1139.05 0 867.42 -1139.04 0 
1825.06 -1139.02 0 2425.08 -1139 0 -1453.66 -1122.11 0 
257.766 -1122.06 0 562.867 -1122.05 0 859.257 -1122.04 0 
1833.94 -1122.02 0 2426.72 -1122 0 -1458.56 -1105.1 0 
258.942 -1109.25 0 259.327 -1105.06 0 558.904 -1105.05 0 
851.095 -1105.04 0 1842.83 -1105.02 0 2428.28 -1105 0 
-1463.46 -1088.1 0 260.888 -1088.06 0 554.941 -1088.05 0 
554.951 -1088.09 0 842.932 -1088.04 0 850.958 -1104.76 0 
1849.99 -1091.31 0 1851.69 -1088.01 0 2429.83 -1088 0 
-1468.36 -1071.1 0 263.234 -1071.06 0 550.934 -1071.05 0 
834.77 -1071.04 0 1860.25 -1071.01 0 2431.39 -1071 0 
-1473.26 -1054.1 0 269.232 -1054.05 0 546.934 -1054.05 0 
826.607 -1054.04 0 1868.48 -1054.01 0 2432.95 -1054 0 
-1478.17 -1037.1 0 272.92 -1037.05 0 542.942 -1037.05 0 
816.232 -1037.04 0 1876.38 -1037.01 0 2434.5 -1037 0 
-1480.1 -1030.39 0 -1483.07 -1020.1 0 275.591 -1020.05 0 
538.959 -1020.05 0 802.861 -1020.04 0 813.961 -1034.15 0 
1209.64 -1020.03 0 1220.97 -1028.87 0 1257.97 -1030.12 0 
[...]
POINT_DATA 8780
SCALARS Pressure double
LOOKUP_TABLE default
3.0960786751 3.0960786751 3.0960786751 3.0960786751 3.0960786751 3.0960786751 3.0960786751 3.0960786751 3.0960786751 
3.0960786751 3.0960786751 3.0960786751 3.0960786751 3.0960786751 3.0960786751 3.0960786751 3.0960786751 3.0960786751 
3.0960786751 3.0960786751 3.0960786751 3.0960786751 3.0960786751 3.0960786751 3.0960786751 3.0960786751 3.0960786751 
3.0960786751 3.0960786751 3.0960786751 3.0960786751 3.0960786751 3.0960786751 3.0960786751 3.0960786751 3.0960786751 
3.0960786751 3.0960786751 3.0960786751 3.0960786751 3.0960786751 3.0960786751 3.0960786751 3.0960786751 3.0960786751 
3.0960786751 3.0960786751 3.0960786751 3.0960786751 3.0960786751 3.0960786751 3.0960786751 3.0960786751 3.0960786751 
3.0960786751 3.0960786751 3.0960786751 3.0960786751 3.0960786751 3.0960786751 3.0960786751 3.0960786751 3.0960786751 
3.0960786751 3.0960786751 3.0960786751 3.0960786751 3.0960786751 3.0960786751 3.0960786751 3.0960786751 3.0960786751 
3.0960786751 3.0960786751 3.0960786751 3.0960786751 3.0960786751 3.0960786751 3.0960786751 3.0960786751 3.0960786751 
3.0960786751 3.0960786751 3.0960786751 3.0960786751 3.0960786751 3.0960786751 3.0960786751 3.0960786751 3.0960786751 
3.0960786751 3.0960786751 3.0960786751 3.0960786751 3.0960786751 3.0960786751 3.0960786751 3.0960786751 3.0960786751 
3.0960786751 3.0960786751 3.0960786751 3.0960786751 3.0960786751 3.0960786751 3.0960786751 3.0960786751 3.0960786751 
3.0960786751 3.0835238744 3.0835238744 3.0835238744 3.0835238744 3.0835238744 3.0835238744 3.0960786751 3.0960786751 
3.0960786751 3.0835238744 3.0835238744 3.0835238744 3.0835238744 3.0835238744 3.0835238744 3.0960786751 3.0960786751 
3.0835238744 3.0835238744 3.0835238744 3.0835238744 3.0835238744 3.0835238744 3.0835238744 3.0960786751 3.0960786751 
3.0835238744 3.0835238744 3.0835238744 3.0835238744 3.0835238744 3.0835238744 3.0960786751 3.0960786751 3.0835238744 
3.0835238744 3.0835238744 3.0960786751 3.0960786751 3.0960786751 3.0960786751 3.0835238744 3.0835238744 3.0835238744 
3.0835238744 3.0960786751 3.0960786751 3.0835238744 3.0835238744 3.0835238744 3.0835238744 3.0960786751 3.0960786751 
3.0835238744 3.0835238744 3.0835238744 3.0960786751 3.0960786751 3.0960786751 3.0835238744 3.0835238744 3.0835238744 
3.0960786751 3.0960786751 3.0835238744 3.0835238744 3.0960786751 3.0960786751 3.0835238744 3.0835238744 3.0835238744 
3.0960786751 3.0960786751 3.0960786751 3.0835238744 3.0835238744 3.0835238744 3.0960786751 3.0960786751 3.0835238744 
3.0835238744 3.0960786751 3.0960786751 3.0835238744 3.0835238744 3.0835238744 3.0960786751 3.0960786751 3.0960786751 
3.0835238744 3.0835238744 3.0960786751 3.0960786751 3.0835238744 3.0835238744 3.0835238744 3.0835238744 3.0960786751 
3.0960786751 3.0835238744 3.0835238744 3.0960786751 3.0960786751 3.0835238744 3.0835238744 3.0835238744 3.0960786751 
3.0960786751 3.0835238744 3.0835238744 3.0960786751 3.0960786751 3.0835238744 3.0835238744 3.0835238744 3.0835238744 
3.0960786751 3.0960786751 3.0835238744 3.0835238744 3.0960786751 3.0960786751 3.0960786751 3.0835238744 3.0835238744 
3.0960786751 3.0960786751 3.0835238744 3.0835238744 3.0835238744 3.0960786751 3.0960786751 3.0835238744 3.0835238744 
3.0835238744 3.0960786751 3.0960786751 3.0835238744 3.0835238744 3.0835238744 3.0960786751 3.0960786751 3.0835238744 
3.0835238744 3.0960786751 3.0960786751 3.0960786751 3.0835238744 3.0835238744 3.0835238744 3.0835238744 3.0960786751 
3.0960786751 3.0835238744 3.0835238744 3.0960786751 3.0960786751 3.0835238744 3.0835238744 3.0960786751 3.0960786751 
3.0835238744 3.0835238744 3.0835238744 3.0960786751 3.0960786751 3.0835238744 3.0835238744 3.0960786751 3.1086334758 
3.1086334758 3.1086334758 3.1086334758 3.1086334758 3.0960786751 3.0835238744 3.0835238744 3.0835238744 3.0835238744 
3.0960786751 3.1086334758 3.1086334758 3.1086334758 3.1086334758 3.1086334758 3.1086334758 3.1086334758 3.1086334758 
3.1086334758 3.0960786751 3.0960786751 3.0835238744 3.0835238744 3.0960786751 3.1086334758 3.1086334758 3.1086334758 
3.0960786751 3.0835238744 3.0835238744 3.0960786751 3.1086334758 3.1086334758 3.0960786751 3.0835238744 3.0835238744 
3.0835238744 3.0960786751 3.0960786751 3.1086334758 3.1086334758 3.1086334758 3.1086334758 3.0960786751 3.0835238744 
3.0835238744 3.0835238744 3.0960786751 3.1086334758 3.1086334758 3.0960786751 3.0835238744 3.0835238744 3.0960786751 
3.1086334758 3.1086334758 3.1086334758 3.0960786751 3.0835238744 3.0835238744 3.0960786751 3.1086334758 3.1086334758 
3.1086334758 3.0960786751 3.0835238744 3.0835238744 3.0835238744 3.0960786751 3.1086334758 3.1086334758 3.1086334758 
3.0960786751 3.0835238744 3.0835238744 3.0960786751 3.1086334758 3.1086334758 3.1086334758 3.0960786751 3.0835238744 
3.0835238744 3.0835238744 3.0960786751 3.1086334758 3.1086334758 3.0960786751 3.0835238744 3.0835238744 3.0960786751 
3.1086334758 3.1086334758 3.1086334758 3.1086334758 3.0960786751 3.0835238744 3.0835238744 3.0960786751 3.1086334758 
3.1086334758 3.1086334758 3.0960786751 3.0835238744 3.0835238744 3.0960786751 3.1086334758 3.1086334758 3.0960786751 
3.0835238744 3.0835238744 3.0960786751 3.0960786751 3.1086334758 3.1086334758 3.1086334758 3.0960786751 3.0835238744 
3.0835238744 3.0960786751 3.1086334758 3.1086334758 3.1086334758 3.0960786751 3.0960786751 3.0835238744 3.0835238744 
3.0835238744 3.0960786751 3.1086334758 3.1086334758 3.0960786751 3.0835238744 3.0835238744 3.0960786751 3.1086334758 
3.1086334758 3.0960786751 3.0835238744 3.0835238744 3.0960786751 3.0960786751 3.1086334758 3.1086334758 3.1086334758 
3.0960786751 3.0835238744 3.0835238744 3.0960786751 3.1086334758 3.1086334758 3.1086334758 3.0960786751 3.0835238744 
3.0835238744 3.0960786751 3.1086334758 3.1086334758 3.0960786751 3.0835238744 3.0835238744 3.0960786751 3.1086334758 
3.1086334758 3.0960786751 3.0835238744 3.0835238744 3.0960786751 3.1086334758 3.1086334758 3.1086334758 3.0960786751 
3.0835238744 3.0835238744 3.0835238744 3.0960786751 3.1086334758 3.1086334758 3.1086334758 3.0960786751 3.0835238744 
3.0835238744 3.0960786751 3.1086334758 3.1086334758 3.0960786751 3.0835238744 3.0835238744 3.0960786751 3.1086334758 
3.1086334758 3.0960786751 3.0835238744 3.0835238744 3.0835238744 3.0960786751 3.1086334758 3.1086334758 3.0960786751 
3.0835238744 3.0835238744 3.0960786751 3.0960786751 3.1086334758 3.1086334758 3.1086334758 3.1086334758 3.0960786751 
3.0835238744 3.0835238744 3.0960786751 3.1086334758 3.1086334758 3.0960786751 3.0835238744 3.0835238744 3.0960786751 
3.1086334758 3.1086334758 3.0960786751 3.0835238744 3.0835238744 3.0960786751 3.1086334758 3.1086334758 3.0960786751 
3.0835238744 3.0835238744 3.0835238744 3.0960786751 3.1086334758 3.1086334758 3.1211882764 3.1211882764 3.1211882764 
3.1211882764 3.1211882764 3.1211882764 3.1086334758 3.0960786751 3.0835238744 3.0835238744 3.0960786751 3.1086334758 
3.1211882764 3.1211882764 3.1211882764 3.1211882764 3.1086334758 3.1086334758 3.0960786751 3.0835238744 3.0835238744 
3.0960786751 3.1086334758 3.1086334758 3.1211882764 3.1211882764 3.1211882764 3.1211882764 3.1086334758 3.0960786751 
3.0835238744 3.0835238744 3.0960786751 3.1086334758 3.1211882764 3.1211882764 3.1211882764 3.1086334758 3.0960786751 
3.0835238744 3.0835238744 3.0960786751 3.1086334758 3.1211882764 3.1211882764 3.1211882764 3.1086334758 3.0960786751 
3.0960786751 3.0835238744 3.0835238744 3.0960786751 3.0960786751 3.1086334758 3.1211882764 3.1211882764 3.1211882764 
3.1211882764 3.1086334758 3.0960786751 3.0835238744 3.0709690738 3.0709690738 3.0709690738 3.0709690738 3.0709690738 
3.0709690738 3.0709690738 3.0709690738 3.0709690738 3.0709690738 3.0835238744 3.0960786751 3.1086334758 3.1086334758 
3.1211882764 3.1211882764 3.1211882764 3.1086334758 3.1086334758 3.0960786751 3.0835238744 3.0835238744 3.0835238744 
3.0835238744 3.0835238744 3.0709690738 3.0709690738 3.0835238744 3.0960786751 3.1086334758 3.1211882764 3.1211882764 
3.1211882764 3.1211882764 3.1086334758 3.0960786751 3.0835238744 3.0835238744 3.0835238744 3.0835238744 3.0835238744 
3.0835238744 3.0709690738 3.0709690738 3.0709690738 3.0835238744 3.0960786751 3.1086334758 3.1211882764 3.1211882764 
3.1086334758 3.0960786751 3.0835238744 3.0835238744 3.0835238744 3.0835238744 3.0835238744 3.0835238744 3.0709690738 
3.0709690738 3.0709690738 3.0709690738 3.0709690738 3.0835238744 3.0960786751 3.1086334758 3.1211882764 3.1211882764 
3.1086334758 3.0960786751 3.0835238744 3.0835238744 3.0835238744 3.0835238744 3.0835238744 3.0709690738 3.0709690738 
3.0709690738 3.0835238744 3.0960786751 3.1086334758 3.1086334758 3.1211882764 3.1211882764 3.1211882764 3.1211882764 
3.1086334758 3.1086334758 3.0960786751 3.0835238744 3.0835238744 3.0835238744 3.0835238744 3.0709690738 3.0709690738 
3.0709690738 3.0835238744 3.0960786751 3.1086334758 3.1211882764 3.1211882764 3.1086334758 3.0960786751 3.0835238744 
3.0835238744 3.0835238744 3.0835238744 3.0835238744 3.0835238744 3.0709690738 3.0709690738 3.0835238744 3.0960786751 
3.0960786751 3.1086334758 3.1211882764 3.1211882764 3.1086334758 3.0960786751 3.0835238744 3.0835238744 3.0835238744 
3.0835238744 3.0709690738 3.0709690738 3.0709690738 3.0709690738 3.0835238744 3.0960786751 3.1086334758 3.1211882764 
3.1211882764 3.1211882764 3.1211882764 3.1086334758 3.0960786751 3.0835238744 3.0835238744 3.0835238744 3.0835238744 
3.0835238744 3.0709690738 3.0709690738 3.0709690738 3.0835238744 3.0960786751 3.1086334758 3.1086334758 3.1211882764 
3.1211882764 3.1086334758 3.0960786751 3.0835238744 3.0835238744 3.0835238744 3.0835238744 3.0835238744 3.0709690738 
3.0709690738 3.0835238744 3.0960786751 3.1086334758 3.1211882764 3.1211882764 3.1211882764 3.1086334758 3.1086334758 
3.0960786751 3.0835238744 3.0835238744 3.0835238744 3.0835238744 3.0709690738 3.0709690738 3.0709690738 3.0835238744 
3.0960786751 3.1086334758 3.1211882764 3.1211882764 3.1086334758 3.0960786751 3.0835238744 3.0835238744 3.0835238744 
3.0835238744 3.0709690738 3.0709690738 3.0709690738 3.0709690738 3.0835238744 3.0960786751 3.1086334758 3.1211882764 
3.1211882764 3.1211882764 3.1086334758 3.0960786751 3.0835238744 3.0835238744 3.0835238744 3.0835238744 3.0835238744 
3.0709690738 3.0709690738 3.0835238744 3.0960786751 3.1086334758 3.1086334758 3.1211882764 3.1211882764 3.1211882764 
3.1086334758 3.0960786751 3.0835238744 3.0835238744 3.0835238744 3.0709690738 3.0709690738 3.0835238744 3.0960786751 
3.1086334758 3.1211882764 3.1211882764 3.1086334758 3.0960786751 3.0835238744 3.0835238744 3.0835238744 3.0709690738 
3.0709690738 3.0709690738 3.0835238744 3.0960786751 3.1086334758 3.1211882764 3.1211882764 3.1337430771 3.1337430771 
3.1337430771 3.1337430771 3.1337430771 3.1337430771 3.1211882764 3.1086334758 3.0960786751 3.0835238744 3.0835238744 
3.0835238744 3.0835238744 3.0709690738 3.0709690738 3.0835238744 3.0960786751 3.1086334758 3.1211882764 3.1337430771 
3.1337430771 3.1337430771 3.1337430771 3.1337430771 3.1211882764 3.1086334758 3.0960786751 3.0835238744 3.0835238744 
3.0835238744 3.0709690738 3.0709690738 3.0835238744 3.0960786751 3.0960786751 3.1086334758 3.1211882764 3.1337430771 
3.1337430771 3.1337430771 3.1211882764 3.1086334758 3.0960786751 3.0835238744 3.0835238744 3.0835238744 3.0835238744 
3.0709690738 3.0709690738 3.0835238744 3.0960786751 3.1086334758 3.1086334758 3.1211882764 3.1211882764 3.1337430771 
3.1337430771 3.1337430771 3.1211882764 3.1086334758 3.0960786751 3.0835238744 3.0835238744 3.0835238744 3.0709690738 
3.0709690738 3.0835238744 3.0960786751 3.1086334758 3.1211882764 3.1337430771 3.1337430771 3.1211882764 3.1086334758 
3.0960786751 3.0835238744 3.0835238744 3.0835238744 3.0835238744 3.0835238744 3.0709690738 3.0709690738 3.0709690738 
3.0835238744 3.0960786751 3.1086334758 3.1211882764 3.1211882764 3.1337430771 3.1337430771 3.1337430771 3.1337430771 
3.1211882764 3.1086334758 3.1086334758 3.0960786751 3.0835238744 3.0835238744 3.0835238744 3.0709690738 3.0709690738 
3.0709690738 3.0835238744 3.0960786751 3.1086334758 3.1211882764 3.1337430771 3.1337430771 3.1211882764 3.1086334758 
3.0960786751 3.0835238744 3.0835238744 3.0835238744 3.0709690738 3.0584142731 3.0584142731 3.0584142731 3.0709690738 
3.0835238744 3.0960786751 3.1086334758 3.1211882764 3.1337430771 3.1337430771 3.1337430771 3.1211882764 3.1211882764 
3.1086334758 3.0960786751 3.0960786751 3.0835238744 3.0835238744 3.0835238744 3.0835238744 3.0835238744 3.0709690738 
3.0584142731 3.0584142731 3.0584142731 3.0584142731 3.0584142731 3.0584142731 3.0584142731 3.0584142731 3.0709690738 
3.0835238744 3.0960786751 3.0960786751 3.1086334758 3.1086334758 3.1211882764 3.1211882764 3.1337430771 3.1337430771 
3.1337430771 3.1337430771 3.1211882764 3.1086334758 3.0960786751 3.0835238744 3.0835238744 3.0835238744 3.0709690738 
3.0584142731 3.0584142731 3.0584142731 3.0709690738 3.0835238744 3.0960786751 3.1086334758 3.1211882764 3.1337430771 
3.1337430771 3.1211882764 3.1086334758 3.0960786751 3.0835238744 3.0835238744 3.0835238744 3.0709690738 3.0584142731 
3.0584142731 3.0584142731 3.0709690738 3.0835238744 3.0960786751 3.1086334758 3.1211882764 3.1337430771 3.1337430771 
3.1337430771 3.1211882764 3.1086334758 3.0960786751 3.0835238744 3.0835238744 3.0835238744 3.0835238744 3.0709690738 
3.0584142731 3.0584142731 3.0584142731 3.0709690738 3.0835238744 3.0960786751 3.1086334758 3.1086334758 3.1211882764 
3.1211882764 3.1337430771 3.1337430771 3.1211882764 3.1086334758 3.0960786751 3.0835238744 3.0835238744 3.0835238744 
3.0835238744 3.0835238744 3.0835238744 3.0835238744 3.0835238744 3.0709690738 3.0709690738 3.0584142731 3.0584142731 
3.0709690738 3.0835238744 3.0960786751 3.1086334758 3.1211882764 3.1337430771 3.1337430771 3.1337430771 3.1337430771 
3.1211882764 3.1086334758 3.0960786751 3.0835238744 3.0835238744 3.0835238744 3.0835238744 3.0835238744 3.0835238744 
3.0835238744 3.0835238744 3.0835238744 3.0835238744 3.0835238744 3.0835238744 3.0835238744 3.0835238744 3.0835238744 
3.0835238744 3.0835238744 3.0835238744 3.0835238744 3.0709690738 3.0584142731 3.0584142731 3.0584142731 3.0584142731 
3.0709690738 3.0835238744 3.0960786751 3.1086334758 3.1211882764 3.1337430771 3.1337430771 3.1211882764 3.1086334758 
3.0960786751 3.0835238744 3.0835238744 3.0835238744 3.0835238744 3.0835238744 3.0835238744 3.0835238744 3.0835238744 
3.0835238744 3.0835238744 3.0835238744 3.0835238744 3.0835238744 3.0835238744 3.0709690738 3.0584142731 3.0584142731 
3.0709690738 3.0835238744 3.0960786751 3.1086334758 3.1211882764 3.1211882764 3.1337430771 3.1337430771 3.1337430771 
3.1211882764 3.1086334758 3.0960786751 3.0835238744 3.0835238744 3.0835238744 3.0835238744 3.0835238744 3.0835238744 
3.0835238744 3.0835238744 3.0835238744 3.0835238744 3.0835238744 3.0835238744 3.0835238744 3.0835238744 3.0835238744 
3.0835238744 3.0835238744 3.0835238744 3.0709690738 3.0584142731 3.0584142731 3.0709690738 3.0835238744 3.0960786751 
3.1086334758 3.1086334758 3.1211882764 3.1337430771 3.1337430771 3.1211882764 3.1086334758 3.0960786751 3.0835238744 
3.0835238744 3.0835238744 3.0835238744 3.0835238744 3.0835238744 3.0835238744 3.0835238744 3.0835238744 3.0835238744 
3.0835238744 3.0835238744 3.0835238744 3.0835238744 3.0835238744 3.0835238744 3.0835238744 3.0709690738 3.0584142731 
3.0584142731 3.0709690738 3.0835238744 3.0960786751 3.0960786751 3.1086334758 3.1211882764 3.1211882764 3.1337430771 
3.1337430771 3.1337430771 3.1211882764 3.1086334758 3.1086334758 3.0960786751 3.0835238744 3.0835238744 3.0835238744 
3.0835238744 3.0835238744 3.0835238744 3.0835238744 3.0835238744 3.0835238744 3.0835238744 3.0835238744 3.0835238744 
3.0709690738 3.0584142731 3.0584142731 3.0584142731 3.0709690738 3.0835238744 3.0960786751 3.1086334758 3.1211882764 
3.1337430771 3.1337430771 3.1211882764 3.1086334758 3.0960786751 3.0960786751 3.0835238744 3.0835238744 3.0835238744 
3.0835238744 3.0835238744 3.0835238744 3.0835238744 3.0835238744 3.0835238744 3.0835238744 3.0835238744 3.0835238744 
3.0835238744 3.0835238744 3.0835238744 3.0835238744 3.0835238744 3.0709690738 3.0584142731 3.0458594724 3.0458594724 
3.0458594724 3.0458594724 3.0458594724 3.0584142731 3.0584142731 3.0709690738 3.0835238744 3.0835238744 3.0960786751 
3.1086334758 3.1211882764 3.1337430771 3.1337430771 3.1462978778 3.1462978778 3.1462978778 3.1462978778 3.1337430771 
3.1211882764 3.1086334758 3.0960786751 3.0835238744 3.0835238744 3.0835238744 3.0835238744 3.0835238744 3.0835238744 
3.0835238744 3.0835238744 3.0835238744 3.0835238744 3.0709690738 3.0584142731 3.0458594724 3.0458594724 3.0458594724 
3.0584142731 3.0709690738 3.0835238744 3.0960786751 3.1086334758 3.1086334758 3.1211882764 3.1337430771 3.1462978778 
3.1462978778 3.1462978778 3.1462978778 3.1337430771 3.1211882764 3.1086334758 3.0960786751 3.0835238744 3.0709690738 
3.0709690738 3.0709690738 3.0709690738 3.0835238744 3.0835238744 3.0835238744 3.0835238744 3.0835238744 3.0835238744 
3.0835238744 3.0835238744 3.0835238744 3.0709690738 3.0709690738 3.0584142731 3.0584142731 3.0458594724 3.0458594724 
3.0584142731 3.0709690738 3.0835238744 3.0960786751 3.0960786751 3.1086334758 3.1211882764 3.1211882764 3.1337430771 
3.1462978778 3.1462978778 3.1337430771 3.1211882764 3.1086334758 3.0960786751 3.0835238744 3.0709690738 3.0709690738 
3.0709690738 3.0835238744 3.0835238744 3.0835238744 3.0835238744 3.0835238744 3.0835238744 3.0835238744 3.0835238744 
3.0835238744 3.0709690738 3.0584142731 3.0458594724 3.0458594724 3.0458594724 3.0458594724 3.0584142731 3.0709690738 
3.0835238744 3.0960786751 3.1086334758 3.1211882764 3.1337430771 3.1337430771 3.1462978778 3.1462978778 3.1462978778 
3.1337430771 3.1337430771 3.1211882764 3.1086334758 3.0960786751 3.0835238744 3.0709690738 3.0709690738 3.0709690738 
3.0709690738 3.0709690738 3.0835238744 3.0835238744 3.0835238744 3.0835238744 3.0835238744 3.0835238744 3.0835238744 
3.0835238744 3.0835238744 3.0709690738 3.0584142731 3.0458594724 3.0458594724 3.0458594724 3.0584142731 3.0709690738 
3.0835238744 3.0960786751 3.1086334758 3.1086334758 3.1211882764 3.1337430771 3.1462978778 3.1462978778 3.1462978778 
3.1337430771 3.1211882764 3.1086334758 3.0960786751 3.0835238744 3.0709690738 3.0709690738 3.0835238744 3.0835238744 
3.0835238744 3.0835238744 3.0835238744 3.0835238744 3.0835238744 3.0835238744 3.0709690738 3.0584142731 3.0458594724 
3.0458594724 3.0458594724 3.0584142731 3.0709690738 3.0835238744 3.0960786751 3.1086334758 3.1211882764 3.1337430771 
3.1462978778 3.1462978778 3.1337430771 3.1211882764 3.1086334758 3.1086334758 3.0960786751 3.0835238744 3.0709690738 
3.0709690738 3.0709690738 3.0835238744 3.0835238744 3.0835238744 3.0835238744 3.0835238744 3.0835238744 3.0835238744 
3.0835238744 3.0709690738 3.0584142731 3.0458594724 3.0458594724 3.0584142731 3.0709690738 3.0835238744 3.0960786751 
3.1086334758 3.1211882764 3.1211882764 3.1337430771 3.1462978778 3.1462978778 3.1337430771 3.1211882764 3.1086334758 
3.0960786751 3.0835238744 3.0709690738 3.0709690738 3.0709690738 3.0835238744 3.0835238744 3.0835238744 3.0835238744 
3.0835238744 3.0835238744 3.0835238744 3.0835238744 3.0835238744 3.0709690738 3.0584142731 3.0458594724 3.0458594724 
3.0458594724 3.0584142731 3.0709690738 3.0835238744 3.0960786751 3.0960786751 3.1086334758 3.1211882764 3.1337430771 
3.1337430771 3.1462978778 3.1462978778 3.1337430771 3.1211882764 3.1211882764 3.1086334758 3.0960786751 3.0835238744 
3.0709690738 3.0709690738 3.0709690738 3.0835238744 3.0835238744 3.0835238744 3.0835238744 3.0835238744 3.0835238744 
3.0709690738 3.0584142731 3.0458594724 3.0333046717 3.0333046717 3.0333046717 3.0333046717 3.0458594724 3.0584142731 
3.0584142731 3.0709690738 3.0835238744 3.0960786751 3.1086334758 3.1211882764 3.1337430771 3.1462978778 3.1462978778 
3.1337430771 3.1211882764 3.1086334758 3.0960786751 3.0835238744 3.0709690738 3.0709690738 3.0835238744 3.0835238744 