# vtk DataFile Version 4.2
vtk output
ASCII
DATASET UNSTRUCTURED_GRID
POINTS 1740 double
2144.07 -94.44003 0 2911 0 0 16.54298 -37.82236 0 
5.09149 -21.30132 0 1.27433 -10.75385 0 0 0 0 
2.54575 15.14293 0 6.36291 23.76126 0 14.00014 34.89063 0 
30.50239 50.70793 0 33.39435 -52.93479 0 2050.91 -103.7862 0 
60.1465 -69.72165 0 88.83633 -83.2817 0 118.7656 -94.71113 0 
153.4168 -105.7022 0 199.5806 -117.771 0 261.4466 -130.7139 0 
345.846 -144.1892 0 460.3522 -157.0592 0 608.4185 -167.1903 0 
783.2313 -172.4016 0 941.0559 -172.4533 0 1063.409 -170.1096 0 
1164.153 -166.8746 0 1263.449 -162.682 0 1375.468 -156.8941 0 
1513.293 -148.414 0 1665.281 -137.5317 0 1791.864 -127.3721 0 
2195.451 -89.09491 0 2273.924 -80.67077 0 2383.731 -68.3513 0 
2517.64 -52.47337 0 2649.227 -35.9232 0 2740.773 -23.82991 0 
2804.387 -15.13419 0 2848.802 -8.916218 0 2881.944 -4.196067 0 
56.61447 67.79801 0 84.09687 81.25172 0 112.4783 92.48395 0 
142.1748 102.3504 0 174.8563 111.6168 0 213.124 120.8806 0 
260.3759 130.5151 0 324.6539 141.1779 0 418.1422 152.9178 0 
535.6656 162.9871 0 690.9154 170.4255 0 902.6513 172.7852 0 
1100.32 169.0517 0 1270.99 162.3262 0 1462.794 151.6837 0 
1631.287 140.0952 0 1747.993 131 0 1922.788 115.9027 0 
2069.56 101.951 0 2128.804 96.0021 0 2297.147 78.11721 0 
2414.379 64.80104 0 2554.023 47.99319 0 2673.693 32.73885 0 
2757.97 21.50315 0 2814.297 13.7575 0 2852.02 8.460961 0 
2882.272 4.148909 0 1791.052 127.4402 0 1366.894 157.3738 0 
1444.38 -152.8302 0 1547.039 146.1296 0 1589.287 -143.1614 0 
1878.731 119.8675 0 1997.072 108.9828 0 1185.654 166.0472 0 
1882.536 -119.5292 0 1971.323 -111.4145 0 1684.777 136.0292 0 
2099.317 -98.9855 0 2234.809 84.9091 0 2181.695 90.53914 0 
1728.573 -132.5703 0 1718.815 133.3509 0 1834.825 123.7132 0 
1960.305 112.4444 0 2033.69 105.4648 0 2099.184 98.99892 0 
2214.291 -67.135025326 396.8421 2955.512 20.240555493 396.8421 158.0786 -18.451981884 396.8421 
147.0109 -2.5972655426 396.8421 143.3217 7.55301833 396.8421 142.09 17.923187639 396.8421 
144.5505 32.561157978 396.8421 148.2398 40.911265349 396.8421 155.621 51.716009705 396.8421 
171.5701 67.116460945 396.8421 174.3652 -32.904161353 396.8421 2124.254 -75.919886896 396.8421 
200.2206 -48.895471261 396.8421 227.9488 -61.760041138 396.8421 256.8748 -72.562235097 396.8421 
290.3647 -82.910081825 396.8421 334.981 -94.219895926 396.8421 394.7733 -106.27354931 396.8421 
476.3434 -118.71017726 396.8421 587.0114 -130.41397346 396.8421 730.1145 -139.35856003 396.8421 
899.0676 -143.54387414 396.8421 1051.602 -142.96337537 396.8421 1169.853 -140.29998784 396.8421 
1267.221 -136.9049983 396.8421 1363.188 -132.64120516 396.8421 1471.452 -126.87140461 396.8421 
1604.657 -118.55153281 396.8421 1751.55 -108.0158499 396.8421 1873.891 -98.27725697 396.8421 
2263.949 -62.126501888 396.8421 2339.792 -54.253572666 396.8421 2445.918 -42.781157059 396.8421 
2575.338 -28.056830151 396.8421 2702.515 -12.771213773 396.8421 2790.992 -1.6354792724 396.8421 
2852.473 6.3567014817 396.8421 2895.4 12.064681196 396.8421 2927.431 16.394164856 396.8421 
196.807 83.819782795 396.8421 223.3682 97.020161611 396.8421 250.7983 108.07939523 396.8421 
279.4994 117.82613063 396.8421 311.0855 127.01126596 396.8421 348.0705 136.22851562 396.8421 
393.7383 145.85874224 396.8421 455.8617 156.58363013 396.8421 546.2162 168.50977598 396.8421 
659.8003 178.91720329 396.8421 809.846 186.90499929 396.8421 1014.485 190.09605312 396.8421 
1205.528 187.14530499 396.8421 1370.477 181.05921173 396.8421 1555.851 171.06400655 396.8421 
1718.696 159.96282179 396.8421 1831.49 151.15382938 396.8421 2000.426 136.39847151 396.8421 
2142.278 122.64842702 396.8421 2199.537 116.7580416 396.8421 2362.236 98.965434065 396.8421 
2475.539 85.647947157 396.8421 2610.501 68.767627301 396.8421 2726.16 53.389843298 396.8421 
2807.613 42.033443163 396.8421 2862.05 34.191681589 396.8421 2898.509 28.823888253 396.8421 
2927.749 24.450720479 396.8421 1873.106 147.68818975 396.8421 1463.165 176.44147656 396.8421 
1538.054 -122.86900407 396.8421 1637.272 165.76396305 396.8421 1678.104 -113.45031985 396.8421 
1957.846 140.28728382 396.8421 2072.22 129.59072122 396.8421 1288 184.4665507 396.8421 
1961.524 -90.808695099 396.8421 2047.334 -83.118718622 396.8421 1770.393 156.03356982 396.8421 
2171.038 -71.403030438 396.8421 2301.989 105.73601001 396.8421 2250.655 111.33593715 396.8421 
1812.721 -103.2500471 396.8421 1803.29 153.43731415 396.8421 1915.411 144.0502673 396.8421 
2036.686 132.99925363 396.8421 2107.61 126.12038831 396.8421 2170.909 119.72730867 396.8421 
2284.511 -46.994981103 793.6842 3000.027 35.190281406 793.6842 299.6143 -4.5208884442 793.6842 
288.9304 10.694450706 793.6842 285.3691 20.454263702 793.6842 284.1801 30.439654909 793.6842 
286.5551 44.557870961 793.6842 290.1167 52.624138241 793.6842 297.2417 63.075826877 793.6842 
312.6379 78.002226869 793.6842 315.336 -18.356161876 793.6842 2197.597 -55.346687726 793.6842 
340.2947 -33.622908729 793.6842 367.0612 -45.868594448 793.6842 394.9839 -56.122937535 793.6842 
427.3123 -65.918251124 793.6842 470.3812 -76.587530848 793.6842 528.0998 -87.905606628 793.6842 
606.8411 -99.503087438 793.6842 713.6708 -110.29169929 793.6842 851.8104 -118.33881768 793.6842 
1014.904 -121.78617597 793.6842 1162.147 -120.78256323 793.6842 1276.298 -117.9271698 793.6842 
1370.288 -114.4543515 793.6842 1462.927 -110.17956996 793.6842 1567.436 -104.47106668 793.6842 
1696.021 -96.327146337 793.6842 1837.82 -86.107125507 793.6842 1955.917 -76.724200861 793.6842 
2332.447 -42.243469582 793.6842 2405.659 -34.787815718 793.6842 2508.105 -23.949719103 793.6842 
2633.037 -10.078915825 793.6842 2755.801 4.2813773368 793.6842 2841.209 14.721866426 793.6842 
2900.561 22.205632654 793.6842 2941.997 27.546264967 793.6842 2972.917 31.594903282 793.6842 
336.9995 94.232753902 793.6842 362.6396 107.09265215 793.6842 389.1182 117.89142143 793.6842 
416.8239 127.42941436 793.6842 447.3145 136.43781913 793.6842 483.0167 145.49988702 793.6842 
527.1009 154.9961695 793.6842 587.0697 165.61462926 793.6842 674.2905 177.49790946 793.6842 
783.9349 187.98196966 793.6842 928.7766 196.21876899 793.6842 1126.317 199.91592788 793.6842 
1310.735 197.53381948 793.6842 1469.963 191.97327521 793.6842 1648.908 182.57757283 793.6842 
1806.105 171.99370734 793.6842 1914.987 163.53143975 793.6842 2078.064 149.27104717 793.6842 
2214.996 135.90977937 793.6842 2270.269 130.1687299 793.6842 2427.326 112.77530399 793.6842 
2536.699 99.713355338 793.6842 2666.98 83.113432207 793.6842 2778.628 67.955601668 793.6842 
2857.255 56.743241071 793.6842 2909.806 48.99293034 793.6842 2945.001 43.684318057 793.6842 
2973.224 39.357465004 793.6842 1955.16 160.19058786 793.6842 1559.437 187.65556971 793.6842 
1631.729 -100.54313617 793.6842 1727.505 177.53812742 793.6842 1766.921 -91.368256543 793.6842 
2036.96 153.03810579 793.6842 2147.368 142.66327655 793.6842 1390.347 195.1155583 793.6842 
2040.511 -69.560575747 793.6842 2123.346 -62.209096504 793.6842 1856.009 168.22479167 793.6842 
2242.759 -51.04960864 793.6842 2369.167 119.40245092 793.6842 2319.614 124.8760631 793.6842 
1896.869 -81.508891616 793.6842 1887.765 165.72935782 793.6842 1995.998 156.67773311 793.6842 
2113.066 145.97370186 793.6842 2181.531 139.28913997 793.6842 2242.634 133.06389045 793.6842 
2354.732 -33.002509059 1190.526 3044.539 45.16312705 1190.526 441.15 5.0483739495 1190.526 
430.8497 19.648873668 1190.526 427.4164 29.025611529 1190.526 426.2701 38.627526073 1190.526 
428.5601 52.21740288 1190.526 431.9934 59.989260732 1190.526 438.8627 70.067842258 1190.526 
453.7057 84.478377232 1190.526 456.3069 -8.2073724823 1190.526 2270.94 -40.990965359 1190.526 
480.3688 -22.809217657 1190.526 506.1737 -34.499684163 1190.526 533.0934 -44.271894706 1190.526 
564.26 -53.589658995 1190.526 605.7815 -63.716229542 1190.526 661.4265 -74.42580547 1190.526 
737.3385 -85.350146742 1190.526 840.33 -95.433981433 1190.526 973.5064 -102.83007883 1190.526 
1130.74 -105.79199475 1190.526 1272.693 -104.55586058 1190.526 1382.742 -101.63143218 1190.526 
1473.356 -98.165456143 1190.526 1562.666 -93.948068348 1190.526 1663.42 -88.359642394 1190.526 
1787.385 -80.437436019 1190.526 1924.09 -70.54830154 1190.526 2037.944 -61.50510721 1190.526 
2400.946 -28.462933859 1190.526 2471.527 -21.346822285 1190.526 2570.292 -11.015759696 1190.526 
2690.735 2.1862691683 1190.526 2809.091 15.83484805 1190.526 2891.43 25.747884823 1190.526 
2948.647 32.849224595 1190.526 2988.597 37.914963254 1190.526 3018.403 41.754302443 1190.526 
477.1918 100.17192062 1190.526 501.9109 112.62538081 1190.526 527.4382 123.09699058 1190.526 
554.1485 132.35776315 1190.526 583.5435 141.11556816 1190.526 617.963 149.93813317 1190.526 
660.4633 159.19909249 1190.526 718.2775 169.57823969 1190.526 802.3645 181.23577228 1190.526 
908.0698 191.58385017 1190.526 1047.707 199.81885264 1190.526 1238.151 203.73704257 1190.526 
1415.942 201.71852363 1190.526 1569.449 196.55547586 1190.526 1741.965 187.67159749 1190.526 
1893.514 177.57829816 1190.526 1998.484 169.47254639 1190.526 2155.702 155.76618442 1190.526 
2287.714 142.88529854 1190.526 2341.001 137.34165822 1190.526 2492.415 120.51944231 1190.526 
2597.858 107.86433874 1190.526 2723.46 91.759315643 1190.526 2831.095 77.03552977 1190.526 
2906.899 66.134960809 1190.526 2957.56 58.596210621 1190.526 2991.49 53.430768215 1190.526 
3018.699 49.219639933 1190.526 2037.214 166.26614888 1190.526 1655.708 192.48648694 1190.526 
1725.403 -84.532759709 1190.526 1817.738 182.87339858 1190.526 1855.738 -75.633137323 1190.526 
2116.075 159.39161732 1190.526 2222.516 149.39992001 1190.526 1492.694 199.49100499 1190.526 
2119.498 -54.61859018 1190.526 2199.357 -47.564842821 1190.526 1941.625 173.97119614 1190.526 
2314.479 -36.879225302 1190.526 2436.346 126.93331765 1190.526 2388.573 132.22685857 1190.526 
1981.017 -66.112815243 1190.526 1972.24 171.58014808 1190.526 2076.584 162.89131307 1190.526 
[...]
POINT_DATA 1740
FIELD FieldData 1
Pressure 1 1740 double
3.110293516 3.027783672 3.0093978219 2.9869459699 2.9755913482 2.9518529074 2.9673802497 2.9855136746 3.0178240536 
3.0299931896 3.013788091 3.1127325995 3.0383388926 3.0527782055 3.0697537057 3.0672442103 3.0845387709 3.089538078 
3.1115071474 3.1164374177 3.1340447008 3.1426731733 3.1454156547 3.1523096806 3.1486061466 3.1438816908 3.1403800958 
3.1325415697 3.1238581413 3.1184685751 3.1083808342 3.1049608327 3.1010444688 3.0946388838 3.0849715273 3.0759996344 
3.0658826742 3.0582405786 3.0481943448 3.0653786442 3.077835919 3.0913646699 3.1037701498 3.1065646889 3.1189411068 
3.124938749 3.1333204688 3.1487056731 3.1604478474 3.1772769895 3.188475096 3.1953696761 3.2019364973 3.2092501201 
3.205529084 3.2058395259 3.1663953286 3.1625778209 3.1669202772 3.0962051884 3.0870142112 3.0740612569 3.0621146027 
3.0520895453 3.0408865361 3.0341073021 3.0354574952 3.1928890425 3.2069491158 3.1377401654 3.2074952658 3.1282455196 
3.1769612845 3.1595954796 3.2009425989 3.1161414995 3.114427303 3.203723488 3.1116958304 3.1083554001 3.1531833575 
3.1206166297 3.2040702096 3.182268411 3.1631782104 3.1590299806 3.1642773275 3.1081901763 3.0258789833 3.0270033585 
2.9986835528 3.0046331247 2.9844077494 2.9952478435 3.0081161972 3.034494726 3.0527791105 3.0397206769 3.1101810855 
3.0581270558 3.0715295612 3.0852419268 3.0891718058 3.1038453624 3.1150179422 3.127087217 3.1341090165 3.1428524893 
3.1475335063 3.1513402669 3.1545486981 3.1505359023 3.1449782684 3.1381376513 3.1269376939 3.1197021809 3.1152247214 
3.1062751982 3.1024162105 3.0976764816 3.0909093268 3.0813183959 3.072272955 3.0625078415 3.0554204054 3.0386157316 
3.0847237594 3.1044588254 3.1159025152 3.1257725583 3.1334273825 3.13980749 3.1442784426 3.1531131174 3.1652265803 
3.1751275167 3.1833173019 3.1917768554 3.1974194667 3.2051660176 3.209422722 3.2000853218 3.1954378903 3.1577482332 
3.1594194045 3.1634920325 3.0799801463 3.0750428665 3.067206273 3.0555657708 3.0457186916 3.0355308955 3.0311942131 
3.0310103286 3.176809767 3.2078266143 3.1341040127 3.2032577785 3.122689076 3.1660679806 3.1548408926 3.2018997716 
3.1130167492 3.1116894784 3.1985765987 3.1092148477 3.0774654293 3.1346237156 3.11745368 3.1982371475 3.169658755 
3.1576353946 3.1567167365 3.1623958114 3.1072381363 3.0219483304 3.0294236652 3.0023844087 3.0028356268 2.9832944793 
2.9976439745 3.009995283 3.0378613051 3.0591494251 3.0485314522 3.1094406897 3.0629004887 3.0821751253 3.0995254627 
3.1074529519 3.1185803435 3.1285450098 3.1394448581 3.1471990902 3.1538804473 3.1565180365 3.1576622283 3.1577175344 
3.1511819951 3.1428992419 3.1343318164 3.12292102 3.1167081282 3.1139825178 3.104865528 3.1008058112 3.0954070103 
3.089063875 3.0786919851 3.0694016312 3.059981557 3.0532064541 3.0411399191 3.0897449105 3.1122597198 3.1300773131 
3.1393314376 3.1537845179 3.1598321341 3.1688591627 3.1733727954 3.1816235322 3.1910003085 3.1956904069 3.2024482491 
3.2051389428 3.2129249973 3.2147582117 3.201781069 3.1930126613 3.1540429261 3.1565526711 3.1489632839 3.0709588856 
3.0671384749 3.0611294073 3.0502387238 3.0402193129 3.0305416991 3.0263682362 3.0254298967 3.1704925789 3.2147296707 
3.1294143221 3.2063987475 3.1186872107 3.1604414961 3.1528296704 3.2090094841 3.1115601221 3.1106523999 3.1995862473 
3.1084631179 3.0662355859 3.0883903184 3.1155542744 3.1982159198 3.1635763285 3.1542252628 3.1541389717 3.1606847788 
3.1066997734 3.0201170824 3.030014532 3.0021937956 3.0031221824 2.9821379224 2.9922812328 3.0057485873 3.0379456125 
3.0594317135 3.0485378808 3.1090831371 3.0689276306 3.0865292003 3.1047100623 3.1146570691 3.1257080301 3.1348073166 
3.1473190246 3.1548995992 3.1608094756 3.1616866923 3.1621412619 3.1595041761 3.1504634794 3.1401293528 3.1296718707 
3.1204162834 3.1158013949 3.1138282764 3.104208836 3.0997476981 3.0953314279 3.0888361986 3.0781923893 3.0682945676 
3.059444933 3.0526750476 3.0417437134 3.0929997136 3.1164983262 3.1325598768 3.1442275954 3.1521006508 3.1630314319 
3.1762826587 3.1838020798 3.1918522103 3.2025612482 3.2079356347 3.2140165843 3.2151728065 3.2219664518 3.22334409 
3.2071180644 3.196171272 3.1529055493 3.1550855235 3.1157061324 3.0682012656 3.0623582089 3.0548861828 3.0448434956 
3.0352719579 3.0260181651 3.0218023081 3.0205180196 3.1719596815 3.2242936909 3.1250809782 3.2121450768 3.1167736229 
3.1581959807 3.1517891141 3.2185532202 3.1115248883 3.1105262598 3.2042542371 3.1077794777 3.0666207397 3.0716547599 
3.1147252249 3.2023341167 3.1625658854 3.1530713541 3.1526296774 3.1577528016 3.1060282925 3.0188095252 3.031305821 
3.0021006109 3.0055636654 2.9848965482 2.993895535 3.006277803 3.0395098251 3.0603380144 3.0489823449 3.1086225624 
3.0704903583 3.0884414856 3.1045837045 3.1157409014 3.1273771247 3.138501796 3.1491932284 3.1583391416 3.1644447103 
3.1649666237 3.1642386536 3.1591039864 3.1476523093 3.1358996948 3.1247881753 3.1187458129 3.1155942522 3.1137992433 
3.1036525118 3.0993572106 3.0954364751 3.0889667076 3.0787477309 3.068763058 3.0601144115 3.0530678852 3.0430565571 
3.0943752252 3.1178653488 3.133081305 3.1453962224 3.1550138741 3.1659344594 3.1773766247 3.1860153364 3.1962088088 
3.2083172425 3.2171894123 3.2228462562 3.2245568109 3.2301311263 3.2317876114 3.2119316097 3.1994294984 3.1520248754 
3.1542429381 3.0809829532 3.0663458578 3.0599224313 3.0519236131 3.0416140294 3.0317185645 3.0226539419 3.0184326737 
3.0165743828 3.1737797731 3.2326521839 3.1212813681 3.2194506561 3.1158084021 3.1573117826 3.1509165597 3.2274075165 
3.1119592465 3.1100769204 3.2076062387 3.1070246282 3.0662655934 3.0670061165 3.1148483268 3.205748878 3.1618634516 
3.1526009352 3.1512319993 3.1489990471 3.1052635275 3.0182727771 3.0318074783 3.0022936063 3.0065122624 2.9855100088 
2.9945990293 3.0075481543 3.0402352579 3.0619401054 3.0493326949 3.1082686501 3.0708856744 3.0896147481 3.1048239818 
3.1167103854 3.1282379023 3.1404735528 3.1511486936 3.1605383873 3.1673411277 3.1675390367 3.1656866878 3.157532317 
3.1439764168 3.1311178836 3.1210066616 3.1184607181 3.1155079404 3.1140323776 3.1031816384 3.0991989099 3.0955893704 
3.089265244 3.079244551 3.0692455576 3.0607361342 3.0535776835 3.0441376686 3.0959409725 3.1195487997 3.1347646109 
3.1472435803 3.1563902836 3.1680234005 3.1795946852 3.1891516993 3.2006505469 3.2125262895 3.223917779 3.2303988216 
3.2331227132 3.2380146285 3.2416385953 3.2186539044 3.2040093319 3.1488899691 3.1505733464 3.0628952924 3.0647794994 
3.0593544266 3.0510318573 3.0406643654 3.0304744958 3.0210555162 3.0166340528 3.0141010136 3.1755361984 3.2408975042 
3.1188008228 3.2295709119 3.1157676337 3.1547533399 3.1485629441 3.2358619777 3.1121764767 3.1097136932 3.2124951971 
3.1064718957 3.0679474679 3.0655715126 3.1146352677 3.2102913984 3.1606740645 3.1497655214 3.1486422447 3.1183948998 
3.1049570563 3.0181353994 3.0317891235 3.0022109162 3.0063051046 2.9855960972 2.9943254201 3.0078452856 3.0407393777 
3.062559091 3.0488455263 3.1081696999 3.0706491158 3.0895349102 3.1044855944 3.1170053022 3.1285195419 3.1414696343 
3.1523415694 3.1618197541 3.1695716993 3.1693661766 3.1665492274 3.1551590066 3.1404374164 3.1279524796 3.1186384456 
3.1180175468 3.1163121455 3.114203492 3.1031022182 3.099166866 3.0957575236 3.0896558108 3.0797105782 3.0697689849 
3.0612526781 3.0541141339 3.0445197562 3.0970261256 3.1207029252 3.1362919888 3.1489933764 3.1585338368 3.1700761817 
3.1816686762 3.1914615335 3.2038260065 3.2160851835 3.2283448972 3.2365125429 3.2402960802 3.2456258802 3.2504924647 
3.2292521402 3.2116353948 3.1443940972 3.1401244266 3.0582507399 3.0640688014 3.058210329 3.0497035421 3.0397450125 
3.0298840449 3.0199129817 3.0156810792 3.0127430839 3.1794126243 3.248989132 3.1176488601 3.2423245686 3.116958119 
3.1509341449 3.1445381249 3.2431270262 3.1119546957 3.109353086 3.2211774143 3.1062895288 3.06683325 3.0657238131 
3.115076371 3.2181300723 3.1599402198 3.1453346717 3.1451708635 3.0723544771 3.1049835281 3.0177439726 3.0321521959 
3.0023884255 3.0074034828 2.986594276 2.9946228548 3.0082747659 3.0417381881 3.0634514931 3.048528535 3.1081932994 
3.070217885 3.0893051508 3.10436935 3.117226184 3.1286779582 3.1418697462 3.152992659 3.1631822508 3.1707395649 
3.1703974737 3.1666211849 3.1522286665 3.1361304417 3.12504748 3.1176114581 3.1191110211 3.1172141073 3.1144957676 
3.1032204065 3.0994128621 3.0959675061 3.0900598435 3.0801523944 3.070224154 3.0616702382 3.0546056145 3.0445929582 
3.0982841003 3.1221771485 3.1379336468 3.1508416819 3.1604569473 3.1720150491 3.1837878134 3.1939645792 3.2068419893 
3.2194750728 3.2319013917 3.2414729188 3.246356812 3.2518881565 3.2583316385 3.2434704418 3.2255795299 3.1384441191 
3.1084485963 3.0543767499 3.0603239621 3.0544141813 3.0464470893 3.0373714287 3.0281872559 3.0181123624 3.0143728075 
3.0111823274 3.1876090593 3.2552006533 3.1174168944 3.2583045056 3.1179755222 3.1468259077 3.1393704666 3.2492217895 
3.1119172815 3.1092249316 3.2354758361 3.1063425717 3.0639721577 3.0619800772 3.1158363377 3.2321007184 3.1619462798 
3.1395394114 3.1409138427 3.0440922551 3.1052438257 3.0168889487 3.0326657334 3.0025833571 3.0084052809 2.9876801061 
2.9953146472 3.0089865842 3.0427993019 3.064708421 3.0478890112 3.1085165447 3.0696197244 3.0887864728 3.1041296572 
3.1171451893 3.1284654577 3.1419135112 3.1531755848 3.1641365531 3.1711302738 3.1710001959 3.1662448688 3.149354341 
3.1336719217 3.1239550291 3.1179034346 3.1198879337 3.1181263734 3.1150538335 3.1035138265 3.0997539907 3.0962778154 
3.0904551663 3.0805234183 3.0705813434 3.0619429557 3.0549357635 3.0445135765 3.0998901937 3.1240282201 3.139937222 
3.1529453572 3.1627796653 3.1743520211 3.1862593377 3.1966745657 3.2100869331 3.2229743545 3.2354894537 3.2456716837 
3.2513822597 3.2571421693 3.2623692203 3.2602947611 3.2505169503 3.1316221369 3.0642784647 3.0490390392 3.0551924293 
3.0482446718 3.0426661803 3.0342135163 3.0255244802 3.0157772037 3.0124971036 3.009217346 3.2041760549 3.26033689 
3.118319615 3.2690438395 3.1193182042 3.1438132429 3.1339046586 3.2545113728 3.1122063742 3.1093282392 3.256272567 
3.106664045 3.0593924648 3.0518729795 3.116856598 3.2538706716 3.1703764212 3.1326647899 3.1359203981 3.0451734151 
3.1057617245 3.0157117046 3.033060016 3.0028058872 3.0093893338 2.9885628583 2.9959564239 3.0096265244 3.0436124451 
3.065843554 3.0473022424 3.1091436624 3.0688652685 3.0879148662 3.1035736017 3.1164916262 3.1279210725 3.1414781178 
3.1530704328 3.1644090566 3.1715106988 3.1713016593 3.165690823 3.1471157225 3.1319219883 3.1239622713 3.1187963718 
3.1208194172 3.1190174126 3.1157839189 3.1039478403 3.1002118073 3.0966762216 3.0908723542 3.0808416323 3.0709058774 
3.0621165911 3.0551181585 3.044375285 3.1014925112 3.1258527028 3.1419177211 3.1551025748 3.1651408708 3.1768016081 
3.1889989494 3.1996412776 3.2135758817 3.2264947529 3.2394804786 3.2493187581 3.2557182988 3.2624153575 3.268363301 
3.2747636952 3.285155892 3.1241325295 3.0364160553 3.0434501431 3.0479548202 3.0438806138 3.039573503 3.0310639216 
3.0224927397 3.0130575722 3.0101099041 3.0067974736 3.2340409479 3.2626309459 3.1198060329 3.2744694145 3.1205544277 
3.1428722974 3.12738189 3.2587652059 3.1128463105 3.1097247168 3.2784252439 3.1072973006 3.0515907041 3.0463184367 
3.1176014049 3.2805707759 3.19245758 3.1244877745 3.1257598564 3.0457742911 3.1064137744 3.0140991774 3.0333127861 
3.0028751446 3.0102080087 2.9892528 2.9965593431 3.0101937269 3.0443528214 3.0666867533 3.0462501816 3.109873192 
3.0677580702 3.0868814526 3.1020458718 3.1147566567 3.1266649276 3.1403810409 3.1526006341 3.1641783081 3.171156906 
3.1710268817 3.1649100026 3.1455820918 3.1310157735 3.1241629669 3.1192153777 3.1214316302 3.1200787023 3.1167327739 
3.1045253559 3.1008051738 3.0971550248 3.0912988628 3.0811821729 3.0712135755 3.0622552421 3.0552189832 3.0444942476 
3.1029484049 3.1275066511 3.1436003234 3.1571059025 3.1672184527 3.1791324589 3.1916494815 3.2025650909 3.2170100793 
3.2300726225 3.2428149311 3.2534968399 3.2595218944 3.2680544545 3.2703552967 3.2815789449 3.319586001 3.1194156227 
3.0345897717 3.0395082778 3.0431076503 3.0406399197 3.0356734048 3.027316414 3.018965264 3.0097004604 3.0071708951 
3.0037289782 3.2821428616 3.2669494076 3.1199451877 3.2767815976 3.1216283666 3.1529512267 3.1199614293 3.2629890394 
3.1138057237 3.1104552363 3.2944118609 3.10803373 3.0444573238 3.0449853551 3.1185211922 3.3047452388 3.2374767661 
3.116695692 3.0986229779 3.0384207469 3.1070673021 3.0120594228 3.0334658911 3.0029535049 3.0104002538 2.9898111295 
2.9972911972 3.0108492302 3.0448823737 3.0673882081 3.0450938074 3.11061396 3.0665700527 3.0857983889 3.1003356841 
3.112827794 3.1251253562 3.1389457495 3.1518116114 3.1635979138 3.1705579181 3.1707398279 3.164009446 3.1444972528 
3.1306152947 3.1245324513 3.1197077396 3.1223518821 3.1210626509 3.1175074454 3.1050881592 3.101351438 3.0976344735 
3.0916744337 3.0815138738 3.0714443311 3.0623776885 3.0552498668 3.0448196939 3.1043533517 3.1291239011 3.145212547 
3.1591090279 3.1691096911 3.1814002309 3.1941779227 3.2053232378 3.2203402443 3.233485894 3.2462180841 3.256653538 
3.2629238914 3.2718899092 3.2737303284 3.2837090417 3.3235157854 3.1280509034 3.0406615685 3.0301031608 3.036287996 
3.0345454807 3.0296105141 3.0221346168 3.0144071674 3.0054839724 3.0035805047 2.9997948146 3.3332280482 3.27215189 
3.1204719888 3.2751122861 3.1226490138 3.1861313914 3.1110479516 3.2667210552 3.1147104316 3.1112080145 3.2931423419 
3.1088175247 3.0375205357 3.0378825748 3.1192956994 3.3120990197 3.2999106223 3.111713972 3.056370947 3.0479310961 
3.1077076183 3.0097340675 3.033468333 3.0030297382 3.0103878358 2.990232266 2.9981797249 3.0116411859 3.0454578893 
3.068190461 3.0439619666 3.111253833 3.0654744209 3.0847278015 3.0989105963 3.1112756278 3.1238336779 3.1376507386 
3.1511222589 3.162923874 3.1700070177 3.170597383 3.1634133587 3.144334606 3.1306241131 3.1250941616 3.1199481988 
3.123531389 3.1218984131 3.118076497 3.1055440838 3.1017480916 3.0980043233 3.0918888414 3.0817031076 3.0714946034 
3.0624127424 3.0551037982 3.0451948518 3.1058381186 3.130845937 3.1469046328 3.1612424256 3.1710802854 3.1837402066 
3.1967343433 3.2079749261 3.2234653935 3.236675935 3.2496013096 3.2597106775 3.2661086556 3.2742289378 3.2786970978 
3.2807557701 3.3221494752 3.1633646212 3.033378353 3.0269174564 3.0288390779 3.0277295069 3.0230968883 3.0164193131 
3.009266363 3.0008892982 2.9997556154 2.9949016951 3.3595808119 3.2763973655 3.121466962 3.2735266054 3.1234830283 
3.2571712041 3.0984616272 3.2702475232 3.1152413067 3.1117595852 3.2881837669 3.1094623765 3.0317165403 3.0278955669 
3.1199485542 3.308560523 3.3579551884 3.1100254333 3.0213354303 3.0417081573 3.1082640501 3.0074190199 3.0334319463 
3.0033192107 3.0106161417 2.9905889189 2.9992902259 3.0125226519 3.0461359453 3.0691290856 3.0428949948 3.1118075162 
3.0647481274 3.0838229755 3.0980618899 3.1103746308 3.1230480959 3.1366523393 3.1507846035 3.1624997218 3.1697508054 
3.1707649513 3.163576555 3.1450457906 3.1312204893 3.1256055353 3.119776151 3.1241058598 3.122271764 3.1185172678 
3.1058891797 3.101928213 3.0981844498 3.0918062426 3.0816377583 3.0712688585 3.0622298517 3.0546822115 3.0455032617 
3.1073803515 3.1326435108 3.1486192476 3.1633674468 3.1730928357 3.186004946 3.1992656012 3.2104983017 3.2262621634 
3.2396099148 3.2522819644 3.2625939476 3.2688846458 3.2776995429 3.2821790414 3.2829892445 3.3251091729 3.2398607997 
3.023386343 3.0175474846 3.0236689401 3.0221512158 3.0175454107 3.0113958697 3.0045466377 2.9965413974 2.9960822392 
2.9895633127 3.3589711588 3.2804113378 3.1218950473 3.2829133745 3.1239715115 3.3716503208 3.0765802205 3.272924611 
3.1156295474 3.112263784 3.2841563152 3.1099776427 3.0259915337 3.0187197016 3.1202402183 3.3001209862 3.4179559113 
3.1061685797 2.9820739896 3.0272053153 3.1087367426 3.0053942179 3.0335040314 3.0037725086 3.0114300672 2.9909412253 
3.0004021208 3.0134586593 3.0467998458 3.0700068251 3.042246689 3.112145093 3.0643739847 3.0832039052 3.0978967221 
3.1101713845 3.1227644797 3.1359926856 3.1508023719 3.1621228305 3.1698082307 3.1712639545 3.1645430707 3.1470998039 
3.1317737379 3.12602766 3.1193898152 3.1238177686 3.1230367692 3.1190348821 3.1061053194 3.1018706632 3.0981035526 
3.0914405732 3.0812127185 3.0705996299 3.0617042993 3.0539475245 3.0454076683 3.1085531674 3.134178861 3.149971116 
3.1649625535 3.1746875169 3.1879043277 3.2014247132 3.2126532663 3.2281722246 3.2418958147 3.2543539094 3.2644323911 
3.2712502737 3.2809616571 3.284169612 3.2802421492 3.3279620152 3.3345367813 3.0221524564 3.0065311517 3.0179427248 
3.0175884828 3.0130190976 3.0071063172 3.000462819 2.9929062199 2.9926036694 2.9851374264 3.3779679567 3.2831391508 
3.1215673054 3.283184398 3.1242143034 3.5121822996 3.0452332556 3.2749107077 3.1159850499 3.112702614 3.2812974325 
3.1102946756 3.0163708605 3.0100659565 3.1202685586 3.2995417707 3.4495355255 3.0938289423 2.9647357976 3.0060598628 
3.1090427176 3.0043222896 3.0323542771 3.0035746302 3.0118546543 2.990466633 3.0010288739 3.0140079655 3.0465177236 
3.0702978327 3.0414157213 3.11232617 3.0635025713 3.081952648 3.098072758 3.110294193 3.1228510189 3.135182284 
3.1506929599 3.1613018883 3.1702370833 3.1723548085 3.1664167051 3.1502311118 3.1327951434 3.1261843837 3.1191015975 
3.1234088696 3.1235954989 3.119521414 3.1061940926 3.1019179921 3.0979050287 3.0906827581 3.0804328647 3.0696008507 
3.0607889879 3.0528828678 3.04474997 3.109074987 3.1348951619 3.1508731061 3.1659894731 3.1756888671 3.1891234769 
3.2028348227 3.2139774832 3.2293217907 3.2436189095 3.2565296865 3.2660913163 3.2735079991 3.2838826776 3.2858313663 
3.2860058324 3.3379426086 3.3022163824 3.0107808087 3.0023060764 3.0151294894 3.0149761088 3.0109721182 3.0050784783 
2.9983251093 2.9910807294 2.9905666568 2.9829866168 3.3818758797 3.2863128904 3.1208177819 3.2873285084 3.1242506499 
3.5694807786 2.99756328 3.2771603752 3.1160131579 3.1129194123 3.2850272837 3.110648593 3.0135373756 3.0114319792 
3.1208710362 3.3125710903 3.4873227211 3.0690133225 2.9954600775 3.0025273395 3.108719072 3.0049843057 3.0303841037 
3.0017573708 3.0084956517 2.988297279 3.0001519303 3.013699065 3.0476790243 3.0706900351 3.0400169867 3.1120836567 
3.0631099094 3.0812974148 3.0981244365 3.1093824857 3.1226598848 3.1338008462 3.151994151 3.1626281118 3.1725854262 
3.1767534729 3.1706289793 3.1543723197 3.1342394885 3.126693557 3.1203539838 3.1232766991 3.1243577679 3.1189972505 
3.1065613546 3.1017729002 3.0974310827 3.0898299389 3.0794870704 3.0682921117 3.0595025364 3.0515886559 3.0427289861 
3.1097199345 3.1351017744 3.151968476 3.1673941449 3.1770228826 3.1902190605 3.2041066213 3.2157743526 3.2313567066 
3.2464745735 3.2599011722 3.2709171563 3.2769544674 3.2875408841 3.2868206209 3.2914799136 3.3428312482 3.1556750868 
3.0012082844 3.0153405676 3.0188429459 3.0184306944 3.0147006348 3.0076537264 3.0004760762 2.9931353956 2.9919284365 
2.9842633073 3.3833966137 3.2893028268 3.1205318812 3.2907668433 3.1241919727 3.3879045483 2.9824908612 3.2807102391 
3.1158629681 3.1128205543 3.2909189204 3.1105161073 3.0171454617 3.0162326102 3.1210352286 3.3122581943 3.409160392 
3.0422775482 3.0169247795 3.0177529937 3.1087279194 3.0096938182 3.0321672271 3.004819121 3.0102045286 2.9903803854 
3.004322031 3.0173745585 3.0550022661 3.0739154077 3.0436269833 3.1142790118 3.0608510645 3.0823987254 3.0991098094 
3.1118830735 3.126007164 3.1372354297 3.1576192525 3.1741749269 3.1804772907 3.1839655659 3.1754423122 3.1542406336 
3.133736373 3.1273041475 3.1217111142 3.1251657007 3.1241587653 3.1188612591 3.1059937436 3.1017011685 3.0965449897 
3.0871383426 3.0779843103 3.0657066587 3.0573933712 3.0488222944 3.0400261861 3.1095208114 3.1368646118 3.1568644721 
3.1722840835 3.1808891502 3.1984790849 3.2091679554 3.2183972634 3.2375237762 3.2511400827 3.2664704276 3.27427269 