# vtk DataFile Version 4.2
vtk output
ASCII
DATASET POLYDATA
POINTS 6508 float
2508.42 -2977.14 5800 2522.86 -2988.24 5800 2544.08 -2977.14 5800 
2497.85 -2964.14 5800 2551.86 -2973.07 5800 2568.93 -2964.14 5800 
2491.37 -2951.14 5800 2493.86 -2957.35 5800 2580.86 -2957.89 5800 
2593.77 -2951.14 5800 2486.16 -2938.14 5800 2609.86 -2942.72 5800 
2618.62 -2938.14 5800 2480.95 -2925.14 5800 2638.87 -2927.54 5800 
2643.47 -2925.13 5800 2475.74 -2912.14 5800 2667.87 -2912.37 5800 
2668.32 -2912.13 5800 2470.53 -2899.14 5800 2693.17 -2899.13 5800 
2465.32 -2886.14 5800 2696.87 -2897.2 5800 2718.52 -2886.13 5800 
2460.11 -2873.14 5800 2464.86 -2884.99 5800 2725.87 -2878.27 5800 
2727.95 -2873.13 5800 2454.9 -2860.14 5800 2733.19 -2860.13 5800 
2449.69 -2847.13 5800 2738.44 -2847.12 5800 2444.48 -2834.13 5800 
2743.69 -2834.12 5800 2439.27 -2821.13 5800 2748.93 -2821.12 5800 
2434.06 -2808.13 5800 2435.87 -2812.64 5800 2754.18 -2808.12 5800 
2428.85 -2795.13 5800 2754.88 -2806.38 5800 2759.42 -2795.12 5800 
2423.64 -2782.13 5800 2764.67 -2782.12 5800 2418.43 -2769.13 5800 
2769.92 -2769.12 5800 2413.22 -2756.13 5800 2775.16 -2756.12 5800 
2408.01 -2743.13 5800 2780.41 -2743.11 5800 2389.01 -2730.13 5800 
2406.87 -2742.15 5800 2783.89 -2734.5 5800 2785.66 -2730.11 5800 
2369.26 -2717.13 5800 2377.87 -2722.8 5800 2790.9 -2717.11 5800 
2349.51 -2704.13 5800 2796.15 -2704.11 5800 2329.76 -2691.13 5800 
2348.87 -2703.71 5800 2801.4 -2691.11 5800 2310.01 -2678.13 5800 
2319.87 -2684.62 5800 2806.64 -2678.11 5800 2290.27 -2665.13 5800 
2290.87 -2665.53 5800 2811.89 -2665.11 5800 2270.52 -2652.13 5800 
2812.89 -2662.62 5800 2817.13 -2652.11 5800 2250.77 -2639.13 5800 
2261.87 -2646.44 5800 2822.38 -2639.11 5800 2230.9 -2626.13 5800 
2232.88 -2627.35 5800 2827.63 -2626.1 5800 2208.92 -2613.12 5800 
2832.87 -2613.1 5800 2185.08 -2600.12 5800 2203.88 -2610.28 5800 
2838.12 -2600.1 5800 2161.03 -2587.12 5800 2174.88 -2594.61 5800 
2841.9 -2590.74 5800 2843.37 -2587.1 5800 2136.97 -2574.12 5800 
2145.88 -2578.94 5800 2855.26 -2574.1 5800 2112.91 -2561.12 5800 
2116.88 -2563.27 5800 2869.37 -2561.1 5800 2088.85 -2548.12 5800 
2870.9 -2559.7 5800 2882.63 -2548.1 5800 2064.79 -2535.12 5800 
2087.88 -2547.6 5800 2896.19 -2535.1 5800 2040.73 -2522.12 5800 
2058.88 -2531.93 5800 2899.91 -2531.61 5800 2909.59 -2522.09 5800 
2025.98 -2509.12 5800 2029.88 -2516.26 5800 2922.83 -2509.09 5800 
2021.11 -2496.12 5800 2928.91 -2503.13 5800 2936.07 -2496.09 5800 
2021.48 -2483.12 5800 2949.31 -2483.09 5800 2021.86 -2470.12 5800 
2957.91 -2474.65 5800 2962.55 -2470.09 5800 2022.23 -2457.12 5800 
2975.79 -2457.09 5800 2022.6 -2444.12 5800 2986.91 -2446.16 5800 
2989.03 -2444.08 5800 2022.97 -2431.12 5800 3002.27 -2431.08 5800 
2023.34 -2418.12 5800 3015.51 -2418.08 5800 2023.72 -2405.12 5800 
3015.92 -2417.68 5800 3028.75 -2405.08 5800 2024.09 -2392.11 5800 
3041.99 -2392.08 5800 2024.46 -2379.11 5800 3044.92 -2389.2 5800 
3055.23 -2379.08 5800 2024.83 -2366.11 5800 3068.47 -2366.08 5800 
2025.2 -2353.11 5800 3073.92 -2360.72 5800 3081.71 -2353.07 5800 
2025.58 -2340.11 5800 3094.95 -2340.07 5800 2025.95 -2327.11 5800 
3102.93 -2332.24 5800 3108.19 -2327.07 5800 2026.32 -2314.11 5800 
3121.43 -2314.07 5800 2026.69 -2301.11 5800 3131.93 -2303.76 5800 
3134.67 -2301.07 5800 2027.06 -2288.11 5800 3147.91 -2288.07 5800 
2027.44 -2275.1 5800 3160.93 -2275.28 5800 3161.1 -2275.07 5800 
2027.81 -2262.1 5800 3168.95 -2262.06 5800 2028.18 -2249.1 5800 
3171.45 -2249.06 5800 2028.55 -2236.1 5800 3172.42 -2236.06 5800 
2028.92 -2223.1 5800 3173.4 -2223.06 5800 2029.3 -2210.1 5800 
3174.38 -2210.06 5800 2029.67 -2197.1 5800 3175.36 -2197.06 5800 
2029.9 -2188.97 5800 2030.04 -2184.1 5800 3176.34 -2184.06 5800 
2030.41 -2171.1 5800 3177.31 -2171.06 5800 2030.79 -2158.1 5800 
3178.29 -2158.06 5800 2031.16 -2145.09 5800 3179.27 -2145.06 5800 
2031.53 -2132.09 5800 3180.25 -2132.05 5800 2031.9 -2119.09 5800 
3181.23 -2119.05 5800 2032.27 -2106.09 5800 3182.2 -2106.05 5800 
2032.68 -2093.09 5800 3183.18 -2093.05 5800 2033.25 -2080.09 5800 
3184.16 -2080.05 5800 2033.82 -2067.09 5800 3185.14 -2067.05 5800 
2034.38 -2054.09 5800 3186.11 -2054.05 5800 2034.94 -2041.09 5800 
3187.09 -2041.05 5800 2033.22 -2028.09 5800 3188.07 -2028.05 5800 
2030.54 -2015.08 5800 3189.05 -2015.05 5800 2027.85 -2002.08 5800 
2029.92 -2012.1 5800 3189.96 -2002.97 5800 3190.03 -2002.04 5800 
2025.16 -1989.08 5800 3191 -1989.04 5800 2022.48 -1976.08 5800 
3191.98 -1976.04 5800 2019.79 -1963.08 5800 3192.82 -1963.04 5800 
2017.11 -1950.08 5800 3193.5 -1950.04 5800 2014.42 -1937.08 5800 
3194.16 -1937.04 5800 2011.74 -1924.08 5800 3194.81 -1924.04 5800 
2009.1 -1911.08 5800 3195.46 -1911.04 5800 2006.46 -1898.08 5800 
3196.11 -1898.04 5800 2003.76 -1885.08 5800 3196.76 -1885.03 5800 
2001 -1872.07 5800 3197.42 -1872.03 5800 1998.31 -1859.07 5800 
2000.93 -1871.74 5800 3198.07 -1859.03 5800 1995.62 -1846.07 5800 
3198.72 -1846.03 5800 1992.94 -1833.07 5800 3199.37 -1833.03 5800 
1990.25 -1820.07 5800 3200.02 -1820.03 5800 1987.57 -1807.07 5800 
3200.67 -1807.03 5800 1985.04 -1794.07 5800 3201.33 -1794.03 5800 
1982.43 -1781.07 5800 3201.98 -1781.03 5800 1979.77 -1768.07 5800 
3202.63 -1768.03 5800 1977.05 -1755.07 5800 3203.28 -1755.02 5800 
1974.27 -1742.07 5800 3203.93 -1742.02 5800 1971.59 -1729.06 5800 
1971.93 -1731.38 5800 3204.58 -1729.02 5800 1970.11 -1716.06 5800 
3205.23 -1716.02 5800 1971.85 -1703.06 5800 3205.89 -1703.02 5800 
1971.94 -1702.75 5800 1976.58 -1690.06 5800 3206.54 -1690.02 5800 
1979.6 -1677.06 5800 3207.19 -1677.02 5800 1983.32 -1664.06 5800 
3207.84 -1664.02 5800 1987.11 -1651.06 5800 3208.49 -1651.02 5800 
1990.9 -1638.06 5800 3209.14 -1638.02 5800 1994.66 -1625.06 5800 
3210.33 -1625.01 5800 1998.41 -1612.06 5800 3214.52 -1612.01 5800 
2000.95 -1603.26 5800 2002.18 -1599.05 5800 3218.99 -1602.8 5800 
3221.51 -1599.01 5800 2005.99 -1586.05 5800 3231.84 -1586.01 5800 
2009.8 -1573.05 5800 3241.84 -1573.01 5800 2013.62 -1560.05 5800 
3247.99 -1565.14 5800 3251 -1560.01 5800 2017.43 -1547.05 5800 
3254.23 -1547.01 5800 2021.24 -1534.05 5800 3256.61 -1534.01 5800 
2025.05 -1521.05 5800 3258.67 -1521 5800 2028.87 -1508.05 5800 
3259.06 -1508 5800 2029.95 -1503.47 5800 2031.88 -1495.04 5800 
3259.45 -1495 5800 2032.91 -1482.04 5800 3259.84 -1482 5800 
2033.95 -1469.04 5800 3260.23 -1469 5800 2034.98 -1456.04 5800 
3260.61 -1456 5800 2036.01 -1443.04 5800 3261 -1443 5800 
2037.09 -1430.04 5800 3261.39 -1430 5800 2038.51 -1417.04 5800 
3261.78 -1417 5800 2039.88 -1404.04 5800 3262.17 -1404 5800 
2041.2 -1391.04 5800 3262.55 -1390.99 5800 2042.61 -1378.04 5800 
3262.94 -1377.99 5800 2044.1 -1365.03 5800 3263.33 -1364.99 5800 
2045.59 -1352.03 5800 3263.72 -1351.99 5800 2047.08 -1339.03 5800 
3264.11 -1338.99 5800 2048.33 -1326.03 5800 3264.49 -1325.99 5800 
2049.45 -1313.03 5800 3264.88 -1312.99 5800 2050.57 -1300.03 5800 
3265.27 -1299.99 5800 2051.69 -1287.03 5800 3265.66 -1286.99 5800 
2052.81 -1274.03 5800 3266.05 -1273.99 5800 2053.93 -1261.03 5800 
3266.43 -1260.98 5800 2055.05 -1248.03 5800 3266.82 -1247.98 5800 
2056.17 -1235.02 5800 3267.21 -1234.98 5800 2054.98 -1222.02 5800 
3267.6 -1221.98 5800 2053.58 -1209.02 5800 3267.99 -1208.98 5800 
2052.42 -1196.02 5800 3268.38 -1195.98 5800 2051.44 -1183.02 5800 
3268.76 -1182.98 5800 2050.6 -1170.02 5800 3269.18 -1169.98 5800 
2049.88 -1157.02 5800 3269.62 -1156.98 5800 2049.25 -1144.02 5800 
3270.04 -1143.98 5800 2048.69 -1131.02 5800 3270.47 -1130.97 5800 
2048.21 -1118.02 5800 3270.89 -1117.97 5800 2047.14 -1105.01 5800 
3271.33 -1104.97 5800 2046.07 -1092.01 5800 3271.82 -1091.97 5800 
2044.73 -1079.01 5800 3272.02 -1078.97 5800 2041.25 -1066.01 5800 
3272.39 -1065.97 5800 2041.58 -1053.01 5800 3272.88 -1052.97 5800 
2041.99 -1040.01 5800 3273.36 -1039.97 5800 2043.17 -1027.01 5800 
3273.84 -1026.97 5800 2045.29 -1014.01 5800 3274.33 -1013.97 5800 
2047.41 -1001.01 5800 3274.81 -1000.96 5800 2049.53 -988.005 5800 
3275.29 -987.963 5800 2051.65 -975.004 5800 3275.78 -974.962 5800 
2053.77 -962.003 5800 3276.26 -961.961 5800 2055.89 -949.002 5800 
3276.75 -948.96 5800 2058.01 -936.001 5800 3277.04 -941.02 5800 
3277.2 -935.959 5800 2059 -929.963 5800 2060.14 -923 5800 
2544.46 -922.983 5800 2552.02 -928.716 5800 2581.02 -935.644 5800 
2606.86 -922.981 5800 3277.55 -922.958 5800 2062.26 -909.999 5800 
2526.35 -909.983 5800 2610.02 -921.435 5800 2637.42 -909.979 5800 
3277.04 -916.947 5800 3276.31 -909.957 5800 2064.38 -896.998 5800 
2507.81 -896.982 5800 2523.02 -907.77 5800 2639.02 -909.275 5800 
2668.02 -907.872 5800 2697.02 -906.726 5800 2726.02 -905.579 5800 
2743.41 -896.974 5800 3273.34 -896.956 5800 2066.5 -883.997 5800 
2489.3 -883.982 5800 2494.02 -887.146 5800 2755.03 -889.35 5800 
2757.82 -883.973 5800 3271.01 -883.955 5800 2068.62 -870.996 5800 
2473.09 -870.982 5800 2764.58 -870.972 5800 3268.57 -870.954 5800 
2070.74 -857.995 5800 2453.49 -857.981 5800 2465.02 -864.743 5800 
2771.34 -857.97 5800 3265.94 -857.953 5800 2072.86 -844.994 5800 
2437.13 -844.981 5800 2778.1 -844.969 5800 3263.3 -844.953 5800 
2074.96 -831.992 5800 2423.5 -831.98 5800 2436.02 -844.062 5800 
2784.03 -833.567 5800 2784.86 -831.968 5800 3260.66 -831.952 5800 
2077.01 -818.991 5800 2412.65 -818.98 5800 2791.62 -818.967 5800 
3258.02 -818.951 5800 2079.09 -805.99 5800 2402.58 -805.979 5800 
2407.02 -812.129 5800 2798.38 -805.966 5800 3255.39 -805.95 5800 
2081.09 -792.989 5800 2393.2 -792.979 5800 2806.56 -792.964 5800 
3252.56 -792.949 5800 2083.06 -779.988 5800 2383.78 -779.978 5800 
2813.04 -786.173 5800 2819.16 -779.963 5800 3249.21 -779.948 5800 
2085.04 -766.987 5800 2374.45 -766.977 5800 2378.02 -771.934 5800 
2832.36 -766.961 5800 3248.05 -775.516 5800 3245.84 -766.947 5800 
2087.01 -753.986 5800 2365.07 -753.976 5800 2842.04 -757.759 5800 
2846.2 -753.96 5800 3243.07 -753.946 5800 2087.78 -740.985 5800 
2355.69 -740.976 5800 2860.43 -740.958 5800 3240.82 -740.945 5800 
[...]
POINT_DATA 6508
SCALARS Pressure double
LOOKUP_TABLE default
3.0932710339 3.0932710339 3.0932710339 3.0932710339 3.0932710339 3.0932710339 3.0932710339 3.0932710339 3.0932710339 
3.0932710339 3.0932710339 3.0932710339 3.0932710339 3.0932710339 3.0932710339 3.0932710339 3.0932710339 3.0932710339 
3.0932710339 3.0932710339 3.0932710339 3.0932710339 3.0932710339 3.0932710339 3.0932710339 3.0932710339 3.0932710339 
3.0932710339 3.0932710339 3.0932710339 3.0932710339 3.0932710339 3.0932710339 3.0932710339 3.0932710339 3.0932710339 
3.0932710339 3.0932710339 3.0932710339 3.0932710339 3.0932710339 3.0932710339 3.0932710339 3.0932710339 3.0932710339 
3.0932710339 3.0932710339 3.0932710339 3.0932710339 3.0932710339 3.0932710339 3.0932710339 3.0932710339 3.0932710339 
3.0932710339 3.0932710339 3.0932710339 3.0932710339 3.0932710339 3.0932710339 3.0932710339 3.0932710339 3.0932710339 
3.0932710339 3.0932710339 3.0932710339 3.0932710339 3.0932710339 3.0932710339 3.0932710339 3.0932710339 3.0932710339 
3.0932710339 3.0932710339 3.0932710339 3.0932710339 3.0932710339 3.0932710339 3.0932710339 3.0932710339 3.0932710339 
3.0932710339 3.0932710339 3.0932710339 3.0932710339 3.0932710339 3.0932710339 3.0932710339 3.0932710339 3.0932710339 
3.0932710339 3.0932710339 3.0932710339 3.0932710339 3.0932710339 3.0932710339 3.0932710339 3.0932710339 3.0932710339 
3.0932710339 3.0932710339 3.0932710339 3.0932710339 3.0932710339 3.0932710339 3.0932710339 3.0932710339 3.0932710339 
3.0932710339 3.0932710339 3.0932710339 3.0932710339 3.0932710339 3.0932710339 3.0932710339 3.0932710339 3.0932710339 
3.0932710339 3.0932710339 3.0932710339 3.0932710339 3.0932710339 3.0932710339 3.0932710339 3.0932710339 3.0932710339 
3.0932710339 3.0932710339 3.0932710339 3.0932710339 3.0932710339 3.0932710339 3.0932710339 3.0932710339 3.0932710339 
3.0932710339 3.0932710339 3.0932710339 3.0932710339 3.0932710339 3.0932710339 3.0932710339 3.0932710339 3.0932710339 
3.0932710339 3.0932710339 3.0932710339 3.0932710339 3.0932710339 3.0932710339 3.0932710339 3.0932710339 3.0932710339 
3.0932710339 3.0932710339 3.0932710339 3.0932710339 3.0932710339 3.0932710339 3.0932710339 3.0932710339 3.0932710339 
3.0932710339 3.0932710339 3.0932710339 3.0932710339 3.0932710339 3.0932710339 3.0932710339 3.0932710339 3.0932710339 
3.0932710339 3.0932710339 3.0932710339 3.0932710339 3.0932710339 3.0932710339 3.0932710339 3.0932710339 3.0932710339 
3.0932710339 3.0932710339 3.0932710339 3.0932710339 3.0932710339 3.0932710339 3.0932710339 3.0932710339 3.0932710339 
3.0932710339 3.0932710339 3.0932710339 3.0932710339 3.0932710339 3.0932710339 3.0932710339 3.0932710339 3.0932710339 
3.0932710339 3.0932710339 3.0932710339 3.0932710339 3.0932710339 3.0932710339 3.0932710339 3.0932710339 3.0932710339 
3.0932710339 3.0932710339 3.0932710339 3.0932710339 3.0932710339 3.0932710339 3.0932710339 3.0932710339 3.0932710339 
3.0932710339 3.0932710339 3.0932710339 3.0932710339 3.0932710339 3.0932710339 3.0932710339 3.0932710339 3.0932710339 
3.0932710339 3.0932710339 3.0932710339 3.0932710339 3.0932710339 3.0932710339 3.0932710339 3.0932710339 3.0932710339 
3.0932710339 3.0932710339 3.0932710339 3.0932710339 3.0932710339 3.0932710339 3.0932710339 3.0932710339 3.0932710339 
3.0932710339 3.0932710339 3.0932710339 3.0932710339 3.0932710339 3.0932710339 3.0932710339 3.0932710339 3.0932710339 
3.0932710339 3.0932710339 3.0932710339 3.0932710339 3.0932710339 3.0932710339 3.0932710339 3.0932710339 3.0932710339 
3.0932710339 3.0932710339 3.0932710339 3.0932710339 3.0932710339 3.0932710339 3.0932710339 3.0932710339 3.0932710339 
3.0932710339 3.0932710339 3.0932710339 3.0932710339 3.0932710339 3.0932710339 3.0932710339 3.0932710339 3.0932710339 
3.0932710339 3.0932710339 3.0932710339 3.0932710339 3.0932710339 3.0932710339 3.0932710339 3.0932710339 3.0932710339 
3.0932710339 3.0932710339 3.0932710339 3.0932710339 3.0932710339 3.0932710339 3.0932710339 3.0932710339 3.0932710339 
3.0932710339 3.0932710339 3.0932710339 3.0932710339 3.0932710339 3.0932710339 3.0932710339 3.0932710339 3.0932710339 
3.0932710339 3.0932710339 3.0932710339 3.0932710339 3.0932710339 3.0932710339 3.0932710339 3.0932710339 3.0932710339 
3.0932710339 3.0932710339 3.0932710339 3.0932710339 3.0932710339 3.0932710339 3.0932710339 3.0932710339 3.0932710339 
3.0932710339 3.0932710339 3.0932710339 3.0932710339 3.0932710339 3.0932710339 3.0932710339 3.0932710339 3.0932710339 
3.0932710339 3.0932710339 3.0932710339 3.0932710339 3.0932710339 3.0932710339 3.0932710339 3.0932710339 3.0932710339 
3.0932710339 3.0932710339 3.0932710339 3.0932710339 3.0932710339 3.0932710339 3.0932710339 3.0932710339 3.0932710339 
3.0932710339 3.0932710339 3.0932710339 3.0932710339 3.0932710339 3.0932710339 3.0932710339 3.0932710339 3.0932710339 
3.0932710339 3.0932710339 3.0932710339 3.0932710339 3.0932710339 3.0932710339 3.0932710339 3.0932710339 3.0932710339 
3.1078652246 3.1078652246 3.1078652246 3.1078652246 3.0932710339 3.0932710339 3.1078652246 3.1078652246 3.1078652246 
3.0932710339 3.0932710339 3.0932710339 3.1078652246 3.1078652246 3.1078652246 3.1078652246 3.1078652246 3.1078652246 
3.1078652246 3.0932710339 3.0932710339 3.1078652246 3.1078652246 3.1078652246 3.1078652246 3.0932710339 3.0932710339 
3.1078652246 3.1078652246 3.0932710339 3.0932710339 3.1078652246 3.1078652246 3.1078652246 3.0932710339 3.0932710339 
3.1078652246 3.1078652246 3.0932710339 3.0932710339 3.1078652246 3.1078652246 3.1078652246 3.1078652246 3.0932710339 
3.0932710339 3.1078652246 3.1078652246 3.0932710339 3.0932710339 3.1078652246 3.1078652246 3.1078652246 3.0932710339 
3.0932710339 3.1078652246 3.1078652246 3.0932710339 3.0932710339 3.1078652246 3.1078652246 3.1078652246 3.0932710339 
3.0932710339 3.1078652246 3.1078652246 3.1078652246 3.0932710339 3.0932710339 3.0932710339 3.1078652246 3.1078652246 
3.1078652246 3.0932710339 3.0932710339 3.1078652246 3.1078652246 3.0932710339 3.0932710339 3.1078652246 3.1078652246 
3.1078652246 3.1078652246 3.0932710339 3.0932710339 3.1078652246 3.1078652246 3.0932710339 3.0932710339 3.1078652246 
3.1078652246 3.0932710339 3.0932710339 3.1078652246 3.1078652246 3.1078652246 3.0932710339 3.0932710339 3.1078652246 
3.1078652246 3.0932710339 3.0932710339 3.0932710339 3.1078652246 3.1078652246 3.1078652246 3.0932710339 3.0932710339 
3.1078652246 3.1078652246 3.0932710339 3.0932710339 3.1078652246 3.1078652246 3.0932710339 3.0932710339 3.1078652246 
3.1078652246 3.0932710339 3.0932710339 3.1078652246 3.1078652246 3.0932710339 3.0932710339 3.1078652246 3.1078652246 
3.1078652246 3.0932710339 3.0932710339 3.1078652246 3.1078652246 3.0932710339 3.0932710339 3.1078652246 3.1224594153 
3.1224594153 3.1224594153 3.1224594153 3.1078652246 3.0932710339 3.0932710339 3.1078652246 3.1078652246 3.1224594153 
3.1224594153 3.1224594153 3.1224594153 3.1224594153 3.1078652246 3.0932710339 3.0932710339 3.1078652246 3.1224594153 
3.1224594153 3.1224594153 3.1224594153 3.1078652246 3.1078652246 3.0932710339 3.0932710339 3.1078652246 3.1224594153 
3.1224594153 3.1078652246 3.0932710339 3.0932710339 3.1078652246 3.1224594153 3.1224594153 3.1224594153 3.1224594153 
3.1078652246 3.0932710339 3.0932710339 3.1078652246 3.1078652246 3.1224594153 3.1224594153 3.1224594153 3.1078652246 
3.0932710339 3.0786768432 3.0786768432 3.0786768432 3.0932710339 3.1078652246 3.1224594153 3.1224594153 3.1224594153 
3.1078652246 3.0932710339 3.0786768432 3.0786768432 3.0786768432 3.0786768432 3.0932710339 3.1078652246 3.1224594153 
3.1224594153 3.1224594153 3.1078652246 3.1078652246 3.0932710339 3.0932710339 3.0786768432 3.0786768432 3.0786768432 
3.0786768432 3.0786768432 3.0786768432 3.0786768432 3.0786768432 3.0786768432 3.0786768432 3.0786768432 3.0786768432 
3.0932710339 3.1078652246 3.1224594153 3.1224594153 3.1078652246 3.0932710339 3.0786768432 3.0786768432 3.0786768432 
3.0786768432 3.0786768432 3.0786768432 3.0786768432 3.0786768432 3.0932710339 3.0932710339 3.1078652246 3.1224594153 
3.1224594153 3.1224594153 3.1078652246 3.0932710339 3.0786768432 3.0786768432 3.0786768432 3.0786768432 3.0786768432 
3.0932710339 3.1078652246 3.1224594153 3.1224594153 3.1224594153 3.1078652246 3.0932710339 3.0786768432 3.0786768432 
3.0786768432 3.0786768432 3.0786768432 3.0786768432 3.0786768432 3.0932710339 3.1078652246 3.1224594153 3.1224594153 
3.1078652246 3.0932710339 3.0786768432 3.0786768432 3.0786768432 3.0786768432 3.0786768432 3.0932710339 3.1078652246 
3.1224594153 3.1224594153 3.1224594153 3.1078652246 3.1078652246 3.0932710339 3.0786768432 3.0786768432 3.0786768432 
3.0786768432 3.0786768432 3.0786768432 3.0932710339 3.1078652246 3.1224594153 3.1224594153 3.1224594153 3.1078652246 
3.0932710339 3.0786768432 3.0786768432 3.0786768432 3.0786768432 3.0786768432 3.0932710339 3.1078652246 3.1078652246 
3.1224594153 3.1224594153 3.1078652246 3.0932710339 3.0786768432 3.0786768432 3.0786768432 3.0786768432 3.0786768432 
3.0932710339 3.1078652246 3.1224594153 3.137053606 3.137053606 3.137053606 3.137053606 3.1224594153 3.1078652246 
3.0932710339 3.0786768432 3.0786768432 3.0786768432 3.0786768432 3.0786768432 3.0786768432 3.0786768432 3.0932710339 
3.1078652246 3.1224594153 3.1224594153 3.137053606 3.137053606 3.137053606 3.1224594153 3.1224594153 3.1078652246 
3.0932710339 3.0786768432 3.0786768432 3.0786768432 3.0786768432 3.0786768432 3.0786768432 3.0932710339 3.1078652246 
3.1224594153 3.137053606 3.137053606 3.137053606 3.137053606 3.1224594153 3.1078652246 3.1078652246 3.0932710339 
3.0786768432 3.0786768432 3.0786768432 3.0786768432 3.0932710339 3.1078652246 3.1224594153 3.137053606 3.137053606 
3.137053606 3.137053606 3.1224594153 3.1078652246 3.0932710339 3.0786768432 3.0786768432 3.0786768432 3.0786768432 
3.0786768432 3.0786768432 3.0932710339 3.1078652246 3.1224594153 3.137053606 3.137053606 3.137053606 3.1224594153 
3.1078652246 3.0932710339 3.0786768432 3.0786768432 3.0786768432 3.0786768432 3.0786768432 3.0932710339 3.1078652246 
3.1224594153 3.137053606 3.137053606 3.137053606 3.1224594153 3.1224594153 3.1078652246 3.0932710339 3.0786768432 
3.0786768432 3.0786768432 3.0786768432 3.0786768432 3.0786768432 3.0932710339 3.1078652246 3.1224594153 3.137053606 
3.137053606 3.1224594153 3.1078652246 3.0932710339 3.0786768432 3.0786768432 3.0786768432 3.0786768432 3.0786768432 
3.0932710339 3.1078652246 3.1224594153 3.1224594153 3.137053606 3.137053606 3.137053606 3.137053606 3.1224594153 
3.1078652246 3.0932710339 3.0786768432 3.0786768432 3.0786768432 3.0786768432 3.0786768432 3.0932710339 3.1078652246 
3.1224594153 3.137053606 3.137053606 3.1224594153 3.1078652246 3.0932710339 3.0786768432 3.0786768432 3.0786768432 
3.0786768432 3.0786768432 3.0932710339 3.1078652246 3.1224594153 3.137053606 3.137053606 3.1224594153 3.1078652246 
3.0932710339 3.0786768432 3.0786768432 3.0786768432 3.0786768432 3.0932710339 3.1078652246 3.1224594153 3.137053606 
3.137053606 3.137053606 3.1224594153 3.1224594153 3.1078652246 3.0932710339 3.0786768432 3.0786768432 3.0786768432 
3.0786768432 3.0786768432 3.0932710339 3.0932710339 3.1078652246 3.1078652246 3.1224594153 3.1224594153 3.137053606 
3.1516477967 3.1516477967 3.1516477967 3.137053606 3.137053606 3.1224594153 3.1078652246 3.0932710339 3.0786768432 
3.0786768432 3.0786768432 3.0786768432 3.0932710339 3.1078652246 3.1224594153 3.137053606 3.1516477967 3.1516477967 
3.1516477967 3.1516477967 3.1516477967 3.1516477967 3.137053606 3.1224594153 3.1078652246 3.1078652246 3.0932710339 
3.0786768432 3.0786768432 3.0786768432 3.0786768432 3.0786768432 3.0932710339 3.1078652246 3.1224594153 3.137053606 
3.137053606 3.1516477967 3.1516477967 3.137053606 3.1224594153 3.1078652246 3.0932710339 3.0786768432 3.0786768432 
3.0786768432 3.0786768432 3.0640826525 3.0640826525 3.0640826525 3.0640826525 3.0640826525 3.0640826525 3.0786768432 
3.0932710339 3.1078652246 3.1224594153 3.137053606 3.1516477967 3.1516477967 3.1516477967 3.1516477967 3.137053606 
3.1224594153 3.1078652246 3.0932710339 3.0786768432 3.0786768432 3.0786768432 3.0786768432 3.0640826525 3.0640826525 
3.0640826525 3.0640826525 3.0640826525 3.0786768432 3.0932710339 3.1078652246 3.1224594153 3.137053606 3.137053606 
3.1516477967 3.1516477967 3.1516477967 3.137053606 3.1224594153 3.1078652246 3.0932710339 3.0786768432 3.0786768432 
3.0786768432 3.0640826525 3.0640826525 3.0640826525 3.0786768432 3.0932710339 3.1078652246 3.1224594153 3.1224594153 
3.137053606 3.1516477967 3.1516477967 3.137053606 3.1224594153 3.1078652246 3.0932710339 3.0786768432 3.0786768432 
3.0786768432 3.0640826525 3.0640826525 3.0786768432 3.0932710339 3.1078652246 3.1224594153 3.137053606 3.1516477967 
3.1516477967 3.1516477967 3.1516477967 3.137053606 3.137053606 3.1224594153 3.1078652246 3.0932710339 3.0786768432 
3.0786768432 3.0786768432 3.0786768432 3.0640826525 3.0640826525 3.0640826525 3.0640826525 3.0786768432 3.0932710339 
3.1078652246 3.1224594153 3.137053606 3.1516477967 3.1516477967 3.137053606 3.1224594153 3.1078652246 3.0932710339 
3.0786768432 3.0786768432 3.0786768432 3.0786768432 3.0786768432 3.0640826525 3.0640826525 3.0786768432 3.0932710339 
3.0932710339 3.1078652246 3.1224594153 3.137053606 3.137053606 3.1516477967 3.1516477967 3.1516477967 3.137053606 
3.1224594153 3.1078652246 3.1078652246 3.0932710339 3.0786768432 3.0786768432 3.0786768432 3.0640826525 3.0640826525 
3.0786768432 3.0786768432 3.0932710339 3.0932710339 3.1078652246 3.1224594153 3.137053606 3.1516477967 3.1516477967 
3.137053606 3.1224594153 3.1078652246 3.0932710339 3.0786768432 3.0786768432 3.0786768432 3.0786768432 3.0786768432 
3.0786768432 3.0786768432 3.0786768432 3.0786768432 3.0786768432 3.0640826525 3.0494884618 3.0494884618 3.0494884618 
3.0494884618 3.0494884618 3.0640826525 3.0786768432 3.0932710339 3.1078652246 3.1224594153 3.137053606 3.1516477967 
3.1516477967 3.1516477967 3.137053606 3.1224594153 3.1078652246 3.0932710339 3.0786768432 3.0786768432 3.0786768432 
3.0786768432 3.0640826525 3.0640826525 3.0494884618 3.0494884618 3.0494884618 3.0640826525 3.0640826525 3.0786768432 
3.0932710339 3.1078652246 3.1078652246 3.1224594153 3.1224594153 3.137053606 3.1516477967 3.1662419875 3.1662419875 
3.1662419875 3.1662419875 3.1662419875 3.1662419875 3.1516477967 3.137053606 3.137053606 3.1224594153 3.1078652246 
3.0932710339 3.0932710339 3.0786768432 3.0640826525 3.0640826525 3.0640826525 3.0786768432 3.0786768432 3.0640826525 
3.0494884618 3.0494884618 3.0494884618 3.0640826525 3.0786768432 3.0932710339 3.0932710339 3.1078652246 3.1224594153 
3.137053606 3.137053606 3.1516477967 3.1662419875 3.1662419875 3.1662419875 3.1516477967 3.137053606 3.1224594153 
3.1078652246 3.0932710339 3.0786768432 3.0786768432 3.0640826525 3.0640826525 3.0640826525 3.0640826525 3.0786768432 
3.0786768432 3.0786768432 3.0640826525 3.0494884618 3.0494884618 3.0494884618 3.0640826525 3.0786768432 3.0932710339 
3.1078652246 3.1224594153 3.137053606 3.1516477967 3.1662419875 3.1662419875 3.1516477967 3.137053606 3.1224594153 
3.1078652246 3.0932710339 3.0786768432 3.0640826525 3.0640826525 3.0640826525 3.0640826525 3.0786768432 3.0786768432 
3.0786768432 3.0640826525 3.0494884618 3.0348942711 3.0348942711 3.0348942711 3.0348942711 3.0494884618 3.0640826525 
3.0786768432 3.0932710339 3.1078652246 3.1224594153 3.137053606 3.1516477967 3.1516477967 2.9473291268 2.9473291268 
2.9619233175 2.9619233175 2.9765175082 2.9765175082 2.991111699 2.991111699 3.0057058897 3.0057058897 3.0203000804 
3.0203000804 3.0348942711 3.0348942711 3.0494884618 3.0494884618 3.0640826525 3.0640826525 3.0786768432 3.0786768432 
3.0932710339 3.0932710339 3.1078652246 3.1078652246 3.1224594153 3.1224594153 3.137053606 3.137053606 3.1516477967 
3.1516477967 2.9473291268 2.9619233175 2.9765175082 2.991111699 3.0057058897 3.0203000804 3.0348942711 3.0494884618 
3.0640826525 3.0786768432 3.0932710339 3.1078652246 3.1224594153 3.137053606 3.1516477967 3.1662419875 2.9473291268 
2.9619233175 2.9765175082 2.991111699 3.0057058897 3.0203000804 3.0348942711 3.0494884618 3.0640826525 3.0786768432 
3.0932710339 3.1078652246 3.1224594153 3.137053606 3.1516477967 3.1662419875 2.9473291268 2.9619233175 2.9765175082 
2.991111699 3.0057058897 3.0203000804 3.0348942711 3.0494884618 3.0640826525 3.0786768432 3.0932710339 3.1078652246 
3.1224594153 3.137053606 3.1516477967 3.1662419875 2.9473291268 2.9619233175 2.9765175082 2.991111699 3.0057058897 
3.0203000804 3.0348942711 3.0494884618 3.0640826525 3.0786768432 3.0932710339 3.1078652246 3.1224594153 3.137053606 
3.1516477967 3.1662419875 2.9473291268 2.9619233175 2.9765175082 2.991111699 3.0057058897 3.0203000804 3.0348942711 
3.0494884618 3.0640826525 3.0786768432 3.0932710339 3.1078652246 3.1224594153 3.137053606 3.1516477967 3.1662419875 
2.9473291268 2.9619233175 2.9765175082 2.991111699 3.0057058897 3.0203000804 3.0348942711 3.0494884618 3.0640826525 
3.0786768432 3.0932710339 3.1078652246 3.1224594153 3.137053606 3.1516477967 2.9473291268 2.9619233175 2.9765175082 
2.991111699 3.0057058897 3.0203000804 3.0348942711 3.0494884618 3.0640826525 3.0786768432 3.0932710339 3.1078652246 
3.1224594153 3.137053606 3.1516477967 2.9473291268 2.9619233175 2.9765175082 2.991111699 3.0057058897 3.0203000804 
3.0348942711 3.0494884618 3.0640826525 3.0786768432 3.0932710339 3.1078652246 3.1224594153 3.137053606 3.1516477967 
2.9473291268 2.9619233175 2.9765175082 2.991111699 3.0057058897 3.0203000804 3.0348942711 3.0494884618 3.0640826525 
3.0786768432 3.0932710339 3.1078652246 3.1224594153 3.137053606 3.1516477967 2.9473291268 2.9619233175 2.9765175082 
2.991111699 3.0057058897 3.0203000804 3.0348942711 3.0494884618 3.0640826525 3.0786768432 3.0932710339 3.1078652246 
3.1224594153 3.137053606 2.9473291268 2.9619233175 2.9765175082 2.991111699 3.0057058897 3.0203000804 3.0348942711 
3.0494884618 3.0640826525 3.0786768432 3.0932710339 3.1078652246 3.1224594153 3.137053606 3.137053606 3.1224594153 
3.1224594153 3.1078652246 3.0932710339 3.0786768432 3.0640826525 3.0640826525 3.0640826525 3.0786768432 3.0786768432 
3.0640826525 3.0494884618 3.0348942711 3.0348942711 3.0348942711 3.0494884618 3.0494884618 3.0640826525 3.0786768432 
3.0932710339 3.1078652246 3.1224594153 2.9473291268 2.9473291268 2.9619233175 2.9619233175 2.9765175082 2.9765175082 
2.991111699 2.991111699 3.0057058897 3.0057058897 3.0203000804 3.0203000804 3.0348942711 3.0348942711 3.0494884618 
3.0494884618 3.0640826525 3.0640826525 3.0786768432 3.0786768432 3.0932710339 3.0932710339 3.1078652246 3.1078652246 
3.1224594153 3.1224594153 3.137053606 2.9473291268 2.9619233175 2.9765175082 2.991111699 3.0057058897 3.0203000804 
3.0348942711 3.0494884618 3.0640826525 3.0786768432 3.0932710339 3.1078652246 3.1224594153 3.137053606 3.1516477967 
2.9473291268 2.9619233175 2.9765175082 2.991111699 3.0057058897 3.0203000804 3.0348942711 3.0494884618 3.0640826525 
3.0786768432 3.0932710339 3.1078652246 3.1224594153 3.137053606 3.1516477967 2.9473291268 2.9619233175 2.9765175082 
2.991111699 3.0057058897 3.0203000804 3.0348942711 3.0494884618 3.0640826525 3.0786768432 3.0932710339 3.1078652246 
3.1224594153 3.137053606 3.1516477967 2.9473291268 2.9619233175 2.9765175082 2.991111699 3.0057058897 3.0203000804 
3.0348942711 3.0494884618 3.0640826525 3.0786768432 3.0932710339 3.1078652246 3.1224594153 3.137053606 2.9473291268 
2.9619233175 2.9765175082 2.991111699 3.0057058897 3.0203000804 3.0348942711 3.0494884618 3.0640826525 3.0786768432 
3.0932710339 3.1078652246 3.1224594153 3.137053606 2.9473291268 2.9619233175 2.9765175082 2.991111699 3.0057058897 
3.0203000804 3.0348942711 3.0494884618 3.0640826525 3.0786768432 3.0932710339 3.1078652246 3.1224594153 2.9473291268 
2.9619233175 2.9765175082 2.991111699 3.0057058897 3.0203000804 3.0348942711 3.0494884618 3.0640826525 3.0786768432 
3.0932710339 3.1078652246 3.1224594153 2.9473291268 2.9619233175 2.9765175082 2.991111699 3.0057058897 3.0203000804 