# vtk DataFile Version 4.2
vtk output
ASCII
DATASET POLYDATA
POINTS 16314 float
1589.65 -3237.19 5800 1592.32 -3250.2 5800 3423.83 -3250.13 5800 
3426.74 -3237.13 5800 1586.98 -3224.19 5800 3429.65 -3224.13 5800 
1584.31 -3211.19 5800 3432.55 -3211.13 5800 1581.64 -3198.19 5800 
3435.46 -3198.13 5800 1578.98 -3185.19 5800 3438.37 -3185.13 5800 
1576.31 -3172.19 5800 3440.84 -3172.13 5800 1573.64 -3159.19 5800 
3443.07 -3159.12 5800 1570.97 -3146.19 5800 3445.23 -3146.12 5800 
1568.3 -3133.19 5800 3447.38 -3133.12 5800 1565.63 -3120.19 5800 
1565.81 -3121.07 5800 3449.54 -3120.12 5800 1562.96 -3107.19 5800 
3450.88 -3112.04 5800 3451.7 -3107.12 5800 1560.3 -3094.18 5800 
3453.85 -3094.12 5800 1557.63 -3081.18 5800 3456.01 -3081.12 5800 
1554.96 -3068.18 5800 3458.17 -3068.12 5800 1552.29 -3055.18 5800 
3460.32 -3055.12 5800 1549.78 -3042.18 5800 3462.48 -3042.11 5800 
1551.95 -3029.18 5800 3464.64 -3029.11 5800 1556.48 -3016.18 5800 
3466.8 -3016.11 5800 1561.72 -3003.18 5800 3468.95 -3003.11 5800 
1565.82 -2993.02 5800 1566.97 -2990.18 5800 3471.11 -2990.11 5800 
1572.22 -2977.17 5800 3473.27 -2977.11 5800 1577.47 -2964.17 5800 
3475.42 -2964.11 5800 1582.72 -2951.17 5800 3477.58 -2951.11 5800 
1587.97 -2938.17 5800 3479.74 -2938.11 5800 1593.21 -2925.17 5800 
3479.89 -2937.16 5800 3481.89 -2925.1 5800 1594.83 -2921.17 5800 
1598.46 -2912.17 5800 3484.05 -2912.1 5800 1603.71 -2899.17 5800 
3486.21 -2899.1 5800 1608.96 -2886.17 5800 3489.53 -2886.1 5800 
1614.21 -2873.17 5800 3492.54 -2873.1 5800 1619.46 -2860.16 5800 
3496.13 -2860.1 5800 1623.84 -2849.31 5800 1624.7 -2847.16 5800 
3499.68 -2847.1 5800 1629.95 -2834.16 5800 3503.24 -2834.1 5800 
1634.4 -2821.16 5800 3506.79 -2821.1 5800 1637.52 -2808.16 5800 
3508.9 -2813.37 5800 3510.35 -2808.09 5800 1639.14 -2795.16 5800 
3513.9 -2795.09 5800 1640.77 -2782.16 5800 3517.45 -2782.09 5800 
1642.39 -2769.16 5800 3521.01 -2769.09 5800 1644.02 -2756.16 5800 
3524.56 -2756.09 5800 1645.64 -2743.15 5800 3528.12 -2743.09 5800 
1647.27 -2730.15 5800 3531.67 -2730.09 5800 1648.9 -2717.15 5800 
3535.22 -2717.09 5800 1650.52 -2704.15 5800 3537.91 -2707.24 5800 
3538.78 -2704.09 5800 1652.15 -2691.15 5800 3542.33 -2691.08 5800 
1652.85 -2685.51 5800 1653.77 -2678.15 5800 3545.89 -2678.08 5800 
1655.4 -2665.15 5800 3549.44 -2665.08 5800 1657.02 -2652.15 5800 
3552.99 -2652.08 5800 1658.65 -2639.15 5800 3556.55 -2639.08 5800 
1660.27 -2626.14 5800 3560.1 -2626.08 5800 1661.9 -2613.14 5800 
3563.66 -2613.08 5800 1663.59 -2600.14 5800 3566.92 -2601.12 5800 
3567.21 -2600.08 5800 1665.45 -2587.14 5800 3570.76 -2587.08 5800 
1667.42 -2574.14 5800 3574.32 -2574.07 5800 1669.41 -2561.14 5800 
3577.87 -2561.07 5800 1671.41 -2548.14 5800 3579.27 -2548.07 5800 
1673.41 -2535.14 5800 3577.29 -2535.07 5800 1675.4 -2522.14 5800 
3569.5 -2522.07 5800 1677.4 -2509.14 5800 3566.93 -2517.79 5800 
3561.71 -2509.07 5800 1679.4 -2496.13 5800 3553.91 -2496.07 5800 
1681.4 -2483.13 5800 3546.12 -2483.07 5800 1681.87 -2480.06 5800 
1683.39 -2470.13 5800 3538.33 -2470.07 5800 1685.39 -2457.13 5800 
3537.93 -2469.4 5800 3530.54 -2457.07 5800 1687.39 -2444.13 5800 
3522.75 -2444.07 5800 1689.38 -2431.13 5800 3514.96 -2431.07 5800 
1691.38 -2418.13 5800 3508.93 -2421.02 5800 3507.17 -2418.06 5800 
1693.38 -2405.13 5800 3499.37 -2405.06 5800 1695.38 -2392.13 5800 
3491.58 -2392.06 5800 1697.37 -2379.12 5800 3483.79 -2379.06 5800 
1699.37 -2366.12 5800 3479.94 -2372.63 5800 3476 -2366.06 5800 
1701.37 -2353.12 5800 3468.21 -2353.06 5800 1703.36 -2340.12 5800 
3460.42 -2340.06 5800 1705.36 -2327.12 5800 3452.63 -2327.06 5800 
1707.36 -2314.12 5800 3450.94 -2324.25 5800 3444.83 -2314.06 5800 
1709.35 -2301.12 5800 3437.04 -2301.06 5800 1710.88 -2291.17 5800 
1711.35 -2288.12 5800 3428.92 -2288.06 5800 1713.35 -2275.12 5800 
3427.39 -2275.06 5800 1715.35 -2262.11 5800 3426.42 -2262.06 5800 
1717.34 -2249.11 5800 3426.38 -2249.05 5800 1719.34 -2236.11 5800 
3426.34 -2236.05 5800 1721.34 -2223.11 5800 3426.3 -2223.05 5800 
1723.33 -2210.11 5800 3426.26 -2210.05 5800 1725.33 -2197.11 5800 
3426.21 -2197.05 5800 1727.33 -2184.11 5800 3426.17 -2184.05 5800 
1729.33 -2171.11 5800 3426.13 -2171.05 5800 1731.32 -2158.11 5800 
3426.09 -2158.05 5800 1733.32 -2145.11 5800 3426.05 -2145.05 5800 
1735.32 -2132.1 5800 3426.01 -2132.05 5800 1737.31 -2119.1 5800 
3425.97 -2119.04 5800 1739.31 -2106.1 5800 3425.93 -2106.04 5800 
1739.9 -2102.28 5800 1740.37 -2093.1 5800 3425.89 -2093.04 5800 
1741.03 -2080.1 5800 3425.85 -2080.04 5800 1741.68 -2067.1 5800 
3425.8 -2067.04 5800 1742.31 -2054.1 5800 3425.76 -2054.04 5800 
1742.92 -2041.1 5800 3425.72 -2041.04 5800 1742.94 -2028.1 5800 
3425.68 -2028.04 5800 1743.25 -2015.09 5800 3425.64 -2015.04 5800 
1743.56 -2002.09 5800 3425.6 -2002.04 5800 1743.87 -1989.09 5800 
3425.56 -1989.03 5800 1744.1 -1976.09 5800 3425.52 -1976.03 5800 
1744.89 -1963.09 5800 3425.46 -1963.03 5800 1747.71 -1950.09 5800 
3425.34 -1950.03 5800 1749.64 -1937.09 5800 3425.1 -1937.03 5800 
1752.04 -1924.09 5800 3424.86 -1924.03 5800 1754.9 -1911.09 5800 
3424.62 -1911.03 5800 1757.87 -1898.09 5800 3424.38 -1898.03 5800 
1760.97 -1885.08 5800 3424.14 -1885.03 5800 1764.19 -1872.08 5800 
3423.9 -1872.03 5800 1767.55 -1859.08 5800 3423.66 -1859.03 5800 
1768.92 -1853.92 5800 1770.78 -1846.08 5800 3423.42 -1846.02 5800 
1773.86 -1833.08 5800 3423.19 -1833.02 5800 1776.94 -1820.08 5800 
3422.95 -1820.02 5800 1780.03 -1807.08 5800 3422.71 -1807.02 5800 
1783.11 -1794.08 5800 3422.47 -1794.02 5800 1786.19 -1781.08 5800 
3422.23 -1781.02 5800 1789.27 -1768.07 5800 3421.99 -1768.02 5800 
1792.36 -1755.07 5800 3421.98 -1767.6 5800 3421.75 -1755.02 5800 
1795.44 -1742.07 5800 3421.51 -1742.02 5800 1797.93 -1731.57 5800 
1798.52 -1729.07 5800 3421.27 -1729.02 5800 1801.6 -1716.07 5800 
3421.03 -1716.01 5800 1804.69 -1703.07 5800 3420.79 -1703.01 5800 
1807.88 -1690.07 5800 3420.55 -1690.01 5800 1811.05 -1677.07 5800 
3420.32 -1677.01 5800 1814.2 -1664.07 5800 2432.81 -1664.04 5800 
2435.96 -1669.72 5800 2464.96 -1665.02 5800 2469.33 -1664.04 5800 
3420.08 -1664.01 5800 1817.42 -1651.06 5800 2429.48 -1651.04 5800 
2493.96 -1658.55 5800 2522.96 -1652.09 5800 2527.66 -1651.04 5800 
3419.84 -1651.01 5800 1820.64 -1638.06 5800 2426.15 -1638.04 5800 
2551.96 -1645.62 5800 2580.96 -1639.16 5800 2585.99 -1638.04 5800 
3419.6 -1638.01 5800 1823.85 -1625.06 5800 2422.82 -1625.04 5800 
2609.96 -1632.69 5800 2638.97 -1625.44 5800 2639.97 -1625.03 5800 
3417.07 -1625.01 5800 1826.94 -1612.61 5800 1827.07 -1612.06 5800 
2419.49 -1612.04 5800 2667.97 -1613.02 5800 2670 -1612.03 5800 
3411.27 -1612.01 5800 1830.29 -1599.06 5800 2416.16 -1599.04 5800 
2696.03 -1599.03 5800 3404.36 -1599.01 5800 1833.51 -1586.06 5800 
2412.82 -1586.04 5800 2696.97 -1598.53 5800 2720.8 -1586.03 5800 
3397.44 -1586 5800 1836.73 -1573.06 5800 2409.49 -1573.04 5800 
2725.97 -1583.31 5800 2745.57 -1573.03 5800 3393 -1577.65 5800 
3390.53 -1573 5800 1839.95 -1560.06 5800 2406.16 -1560.04 5800 
2406.96 -1563.16 5800 2754.97 -1568.09 5800 2770.34 -1560.02 5800 
3383.61 -1560 5800 1843.17 -1547.06 5800 2402.83 -1547.04 5800 
2783.98 -1552.87 5800 2795.11 -1547.02 5800 3376.7 -1547 5800 
1846.39 -1534.05 5800 2399.5 -1534.04 5800 2812.98 -1537.65 5800 
2819.89 -1534.02 5800 3369.78 -1534 5800 1849.61 -1521.05 5800 
2396.17 -1521.03 5800 2841.98 -1522.42 5800 2844.16 -1521.02 5800 
3364 -1523.13 5800 3362.87 -1521 5800 1852.83 -1508.05 5800 
2392.84 -1508.03 5800 2868.05 -1508.02 5800 3355.95 -1508 5800 
1855.95 -1495.45 5800 1856.05 -1495.05 5800 2389.51 -1495.03 5800 
2870.98 -1506.49 5800 2879.48 -1495.02 5800 3350.07 -1495 5800 
1859.27 -1482.05 5800 2386.17 -1482.03 5800 2889.74 -1482.01 5800 
3346.18 -1482 5800 1862.49 -1469.05 5800 2382.84 -1469.03 5800 
2899.99 -1470.6 5800 2901.26 -1469.01 5800 3343.71 -1469 5800 
1865.71 -1456.05 5800 2379.51 -1456.03 5800 2911.71 -1456.01 5800 
3341.25 -1456 5800 1868.67 -1443.05 5800 2374.89 -1443.03 5800 
2377.97 -1451.24 5800 2922.17 -1443.01 5800 3338.78 -1443 5800 
1869.59 -1430.05 5800 2360.67 -1430.03 5800 2928.99 -1434.52 5800 
2932.62 -1430.01 5800 3336.31 -1429.99 5800 1870.19 -1417.04 5800 
2346.45 -1417.03 5800 2348.97 -1419.33 5800 2941.47 -1417.01 5800 
3335.01 -1423.1 5800 3333.85 -1416.99 5800 1870.78 -1404.04 5800 
2332.06 -1404.03 5800 2946.98 -1404.01 5800 3331.38 -1403.99 5800 
1871.38 -1391.04 5800 2316.52 -1391.03 5800 2319.97 -1393.64 5800 
2952.5 -1391.01 5800 3329.18 -1390.99 5800 1871.98 -1378.04 5800 
2299.37 -1378.03 5800 2958 -1378.04 5800 2958.01 -1378 5800 
3327.54 -1377.99 5800 1872.57 -1365.04 5800 2282.22 -1365.03 5800 
2290.97 -1371.66 5800 2963.52 -1365 5800 3326.16 -1364.99 5800 
1873.17 -1352.04 5800 2265.06 -1352.03 5800 2969.04 -1352 5800 
3324.98 -1351.99 5800 1873.77 -1339.04 5800 2247.91 -1339.03 5800 
2261.97 -1349.68 5800 2974.55 -1339 5800 3323.96 -1338.99 5800 
1874.37 -1326.04 5800 2231.48 -1326.03 5800 2232.97 -1327.71 5800 
2979.89 -1326 5800 3323.08 -1325.99 5800 1874.96 -1313.04 5800 
2222.81 -1313.02 5800 2984.75 -1313 5800 3322.31 -1312.99 5800 
1875.84 -1300.04 5800 2217.28 -1300.02 5800 2987 -1306.75 5800 
2989.25 -1300 5800 3321.62 -1299.99 5800 1876.84 -1287.03 5800 
2213.44 -1287.02 5800 2993.95 -1287 5800 3321.01 -1286.98 5800 
1877.71 -1274.03 5800 2210.94 -1274.02 5800 2999.49 -1273.99 5800 
3321.04 -1273.98 5800 1878.28 -1261.03 5800 2209.3 -1261.02 5800 
3005.03 -1260.99 5800 3321.27 -1260.98 5800 1879.94 -1248.03 5800 
2207.66 -1248.02 5800 3010.58 -1247.99 5800 3321.5 -1247.98 5800 
1881.58 -1235.03 5800 2206.02 -1235.02 5800 3016.01 -1235.25 5800 
3016.12 -1234.99 5800 3321.72 -1234.98 5800 1883.2 -1222.03 5800 
2204.38 -1222.02 5800 3021.66 -1221.99 5800 3321.95 -1221.98 5800 
3770.04 -1222.75 5800 3768.92 -1221.96 5800 3775.67 -1221.96 5800 
1884.8 -1209.03 5800 2202.74 -1209.02 5800 2203.98 -1218.87 5800 
3027.21 -1208.99 5800 3322.18 -1208.98 5800 3741.04 -1210.89 5800 
3739.86 -1208.96 5800 3799.04 -1218.45 5800 3828.04 -1215.17 5800 
[...]
POINT_DATA 16314
SCALARS Pressure double
LOOKUP_TABLE default
3.091895538 3.091895538 3.091895538 3.091895538 3.091895538 3.091895538 3.091895538 3.091895538 3.091895538 
3.091895538 3.091895538 3.091895538 3.091895538 3.091895538 3.091895538 3.091895538 3.091895538 3.091895538 
3.091895538 3.091895538 3.091895538 3.091895538 3.091895538 3.091895538 3.091895538 3.091895538 3.091895538 
3.091895538 3.091895538 3.091895538 3.091895538 3.091895538 3.091895538 3.091895538 3.091895538 3.091895538 
3.091895538 3.091895538 3.091895538 3.091895538 3.091895538 3.091895538 3.091895538 3.091895538 3.091895538 
3.091895538 3.091895538 3.091895538 3.091895538 3.091895538 3.091895538 3.091895538 3.091895538 3.091895538 
3.091895538 3.091895538 3.091895538 3.091895538 3.091895538 3.091895538 3.091895538 3.091895538 3.091895538 
3.091895538 3.091895538 3.091895538 3.091895538 3.091895538 3.091895538 3.091895538 3.091895538 3.091895538 
3.091895538 3.091895538 3.091895538 3.091895538 3.091895538 3.091895538 3.091895538 3.091895538 3.091895538 
3.091895538 3.091895538 3.091895538 3.091895538 3.091895538 3.091895538 3.091895538 3.091895538 3.091895538 
3.091895538 3.091895538 3.091895538 3.091895538 3.091895538 3.091895538 3.091895538 3.091895538 3.091895538 
3.091895538 3.091895538 3.091895538 3.091895538 3.091895538 3.091895538 3.091895538 3.091895538 3.091895538 
3.091895538 3.091895538 3.091895538 3.091895538 3.091895538 3.091895538 3.091895538 3.091895538 3.091895538 
3.091895538 3.091895538 3.091895538 3.091895538 3.091895538 3.091895538 3.091895538 3.091895538 3.091895538 
3.091895538 3.091895538 3.091895538 3.091895538 3.091895538 3.091895538 3.091895538 3.091895538 3.091895538 
3.091895538 3.091895538 3.091895538 3.091895538 3.091895538 3.091895538 3.091895538 3.091895538 3.091895538 
3.091895538 3.091895538 3.091895538 3.091895538 3.091895538 3.091895538 3.091895538 3.091895538 3.091895538 
3.091895538 3.091895538 3.091895538 3.091895538 3.091895538 3.091895538 3.091895538 3.091895538 3.091895538 
3.091895538 3.091895538 3.091895538 3.091895538 3.091895538 3.091895538 3.091895538 3.091895538 3.091895538 
3.091895538 3.091895538 3.091895538 3.091895538 3.091895538 3.091895538 3.091895538 3.091895538 3.091895538 
3.091895538 3.091895538 3.091895538 3.091895538 3.091895538 3.091895538 3.091895538 3.091895538 3.091895538 
3.091895538 3.091895538 3.091895538 3.091895538 3.091895538 3.091895538 3.091895538 3.091895538 3.091895538 
3.091895538 3.091895538 3.091895538 3.091895538 3.091895538 3.091895538 3.091895538 3.091895538 3.091895538 
3.091895538 3.091895538 3.091895538 3.091895538 3.091895538 3.091895538 3.091895538 3.091895538 3.091895538 
3.091895538 3.091895538 3.091895538 3.091895538 3.091895538 3.091895538 3.091895538 3.091895538 3.091895538 
3.091895538 3.091895538 3.091895538 3.091895538 3.091895538 3.091895538 3.091895538 3.091895538 3.091895538 
3.091895538 3.091895538 3.091895538 3.091895538 3.091895538 3.091895538 3.091895538 3.091895538 3.091895538 
3.091895538 3.091895538 3.091895538 3.091895538 3.091895538 3.091895538 3.091895538 3.091895538 3.091895538 
3.091895538 3.091895538 3.091895538 3.091895538 3.091895538 3.091895538 3.091895538 3.091895538 3.091895538 
3.091895538 3.091895538 3.091895538 3.091895538 3.091895538 3.0976257654 3.0976257654 3.0976257654 3.0976257654 
3.091895538 3.091895538 3.0976257654 3.0976257654 3.0976257654 3.0976257654 3.091895538 3.091895538 3.0976257654 
3.0976257654 3.0976257654 3.0976257654 3.091895538 3.091895538 3.0976257654 3.0976257654 3.0976257654 3.0976257654 
3.091895538 3.091895538 3.091895538 3.0976257654 3.0976257654 3.0976257654 3.091895538 3.091895538 3.0976257654 
3.0976257654 3.091895538 3.091895538 3.0976257654 3.0976257654 3.0976257654 3.091895538 3.091895538 3.0976257654 
3.0976257654 3.0976257654 3.091895538 3.091895538 3.091895538 3.0976257654 3.0976257654 3.0976257654 3.0976257654 
3.091895538 3.091895538 3.0976257654 3.0976257654 3.0976257654 3.091895538 3.091895538 3.0976257654 3.0976257654 
3.0976257654 3.091895538 3.091895538 3.0976257654 3.0976257654 3.0976257654 3.091895538 3.091895538 3.091895538 
3.0976257654 3.0976257654 3.091895538 3.091895538 3.091895538 3.0976257654 3.0976257654 3.0976257654 3.091895538 
3.091895538 3.0976257654 3.0976257654 3.091895538 3.091895538 3.0976257654 3.0976257654 3.0976257654 3.091895538 
3.091895538 3.0976257654 3.0976257654 3.091895538 3.091895538 3.0976257654 3.0976257654 3.0976257654 3.091895538 
3.091895538 3.0976257654 3.0976257654 3.0976257654 3.091895538 3.091895538 3.0976257654 3.0976257654 3.0976257654 
3.091895538 3.091895538 3.091895538 3.0976257654 3.0976257654 3.091895538 3.091895538 3.0976257654 3.0976257654 
3.0976257654 3.091895538 3.091895538 3.0976257654 3.0976257654 3.0976257654 3.091895538 3.091895538 3.0976257654 
3.0976257654 3.0976257654 3.091895538 3.091895538 3.0976257654 3.0976257654 3.091895538 3.091895538 3.0976257654 
3.0976257654 3.0976257654 3.091895538 3.091895538 3.0976257654 3.0976257654 3.0976257654 3.091895538 3.091895538 
3.0976257654 3.0976257654 3.091895538 3.091895538 3.0976257654 3.0976257654 3.0976257654 3.091895538 3.091895538 
3.0976257654 3.0976257654 3.091895538 3.091895538 3.0976257654 3.0976257654 3.091895538 3.091895538 3.0976257654 
3.0976257654 3.091895538 3.091895538 3.0976257654 3.0976257654 3.091895538 3.091895538 3.0976257654 3.0976257654 
3.0976257654 3.091895538 3.091895538 3.0976257654 3.0976257654 3.091895538 3.0861653106 3.0861653106 3.0861653106 
3.091895538 3.0976257654 3.0976257654 3.0976257654 3.091895538 3.0861653106 3.0861653106 3.0861653106 3.0861653106 
3.0861653106 3.0861653106 3.091895538 3.091895538 3.0976257654 3.0976257654 3.091895538 3.0861653106 3.0861653106 
3.0861653106 3.0861653106 3.0861653106 3.0861653106 3.091895538 3.0976257654 3.1033559928 3.1033559928 3.1033559928 
3.0976257654 3.091895538 3.0861653106 3.0861653106 3.0861653106 3.0861653106 3.0861653106 3.091895538 3.0976257654 
3.1033559928 3.1033559928 3.1033559928 3.0976257654 3.091895538 3.0861653106 3.0861653106 3.0861653106 3.0861653106 
3.0861653106 3.091895538 3.0976257654 3.1033559928 3.1033559928 3.1033559928 3.0976257654 3.0976257654 3.091895538 
3.0861653106 3.0861653106 3.0861653106 3.0861653106 3.091895538 3.0976257654 3.1033559928 3.1033559928 3.1033559928 
3.1033559928 3.0976257654 3.091895538 3.0861653106 3.0861653106 3.091895538 3.0976257654 3.1033559928 3.1033559928 
3.1033559928 3.0976257654 3.091895538 3.0861653106 3.0861653106 3.091895538 3.0976257654 3.1033559928 3.1033559928 
3.1033559928 3.0976257654 3.091895538 3.0861653106 3.0861653106 3.0861653106 3.091895538 3.0976257654 3.1033559928 
3.1033559928 3.1033559928 3.1033559928 3.1033559928 3.0976257654 3.091895538 3.0861653106 3.0861653106 3.0861653106 
3.091895538 3.0976257654 3.1033559928 3.1033559928 3.1033559928 3.0976257654 3.0976257654 3.091895538 3.0861653106 
3.0861653106 3.091895538 3.0976257654 3.1033559928 3.1033559928 3.0976257654 3.091895538 3.0861653106 3.0861653106 
3.091895538 3.0976257654 3.1033559928 3.1033559928 3.1033559928 3.0976257654 3.091895538 3.0861653106 3.0861653106 
3.0861653106 3.0861653106 3.091895538 3.0976257654 3.1033559928 3.1033559928 3.0976257654 3.091895538 3.0861653106 
3.0861653106 3.0861653106 3.0861653106 3.0861653106 3.091895538 3.0976257654 3.1033559928 3.1033559928 3.1033559928 
3.1033559928 3.0976257654 3.091895538 3.0861653106 3.0861653106 3.0861653106 3.0861653106 3.0861653106 3.0861653106 
3.091895538 3.091895538 3.0976257654 3.0976257654 3.1033559928 3.1033559928 3.0976257654 3.091895538 3.0861653106 
3.0861653106 3.0861653106 3.0861653106 3.0861653106 3.0861653106 3.0861653106 3.091895538 3.0976257654 3.1033559928 
3.1033559928 3.1033559928 3.0976257654 3.091895538 3.0861653106 3.0861653106 3.0861653106 3.0861653106 3.0861653106 
3.0861653106 3.091895538 3.0976257654 3.1033559928 3.1033559928 3.1033559928 3.0976257654 3.091895538 3.0861653106 
3.0861653106 3.0861653106 3.0861653106 3.0861653106 3.0861653106 3.091895538 3.091895538 3.0976257654 3.1033559928 
3.1033559928 3.0976257654 3.091895538 3.0861653106 3.0861653106 3.0861653106 3.0861653106 3.0861653106 3.091895538 
3.0976257654 3.1033559928 3.1033559928 3.1033559928 3.0976257654 3.091895538 3.0861653106 3.0861653106 3.0861653106 
3.0861653106 3.0861653106 3.0861653106 3.0861653106 3.0861653106 3.091895538 3.0976257654 3.1033559928 3.1033559928 
3.1033559928 3.0976257654 3.091895538 3.0861653106 3.0861653106 3.0861653106 3.0861653106 3.0861653106 3.0861653106 
3.091895538 3.0976257654 3.0976257654 3.1033559928 3.1033559928 3.0976257654 3.091895538 3.0861653106 3.0861653106 
3.0861653106 3.0861653106 3.0861653106 3.091895538 3.0976257654 3.1033559928 3.1033559928 3.0976257654 3.091895538 
3.0861653106 3.0861653106 3.0861653106 3.0861653106 3.0861653106 3.0861653106 3.091895538 3.0976257654 3.1033559928 
3.1033559928 3.0976257654 3.091895538 3.0861653106 3.0861653106 3.0861653106 3.0861653106 3.0861653106 3.0861653106 
3.0861653106 3.0861653106 3.091895538 3.0976257654 3.1033559928 3.1033559928 3.1033559928 3.0976257654 3.091895538 
3.0861653106 3.0861653106 3.0861653106 3.0861653106 3.0861653106 3.0861653106 3.0861653106 3.0861653106 3.0861653106 
3.0861653106 3.091895538 3.0976257654 3.1033559928 3.1033559928 3.1033559928 3.0976257654 3.091895538 3.0861653106 
3.0861653106 3.0861653106 3.0861653106 3.091895538 3.091895538 3.0976257654 3.1033559928 3.1090862203 3.1090862203 
3.1090862203 3.1090862203 3.1033559928 3.0976257654 3.091895538 3.091895538 3.0861653106 3.0861653106 3.0861653106 
3.0861653106 3.0861653106 3.0861653106 3.091895538 3.0976257654 3.1033559928 3.1090862203 3.1090862203 3.1033559928 
3.0976257654 3.091895538 3.0861653106 3.0861653106 3.0861653106 3.0861653106 3.0861653106 3.091895538 3.0976257654 
3.1033559928 3.1090862203 3.1090862203 3.1090862203 3.1090862203 3.1033559928 3.0976257654 3.091895538 3.0861653106 
3.0861653106 3.0861653106 3.0861653106 3.0861653106 3.091895538 3.0976257654 3.1033559928 3.1090862203 3.1090862203 
3.1090862203 3.1090862203 3.1033559928 3.0976257654 3.091895538 3.0861653106 3.0861653106 3.0861653106 3.0861653106 
3.0861653106 3.0861653106 3.091895538 3.0976257654 3.1033559928 3.1033559928 3.1090862203 3.1090862203 3.1033559928 
3.0976257654 3.091895538 3.0861653106 3.0861653106 3.0861653106 3.0861653106 3.0861653106 3.091895538 3.0976257654 
3.0976257654 3.1033559928 3.1090862203 3.1090862203 3.1090862203 3.1090862203 3.1090862203 3.1033559928 3.1033559928 
3.0976257654 3.091895538 3.0861653106 3.0861653106 3.0861653106 3.0861653106 3.0861653106 3.091895538 3.0976257654 
3.1033559928 3.1090862203 3.1090862203 3.1090862203 3.1090862203 3.1033559928 3.0976257654 3.091895538 3.0861653106 
3.0861653106 3.0861653106 3.0861653106 3.0861653106 3.0861653106 3.091895538 3.0976257654 3.1033559928 3.1090862203 
3.1090862203 3.1033559928 3.0976257654 3.091895538 3.0861653106 3.0861653106 3.0861653106 3.0861653106 3.0861653106 
3.0861653106 3.091895538 3.0976257654 3.1033559928 3.1033559928 3.1090862203 3.1090862203 3.1090862203 3.1033559928 
3.0976257654 3.091895538 3.091895538 3.0861653106 3.0861653106 3.0861653106 3.0861653106 3.0861653106 3.091895538 
3.0976257654 3.1033559928 3.1090862203 3.1090862203 3.1090862203 3.1033559928 3.0976257654 3.091895538 3.0861653106 
3.0861653106 3.0861653106 3.0861653106 3.0861653106 3.0861653106 3.091895538 3.0976257654 3.1033559928 3.1090862203 
3.1090862203 3.1033559928 3.0976257654 3.091895538 3.0861653106 3.0861653106 3.0861653106 3.0861653106 3.0861653106 
3.091895538 3.0976257654 3.1033559928 3.1090862203 3.1090862203 3.1090862203 3.1033559928 3.1033559928 3.0976257654 
3.091895538 3.0861653106 3.0861653106 3.0861653106 3.0861653106 3.0861653106 3.0861653106 3.0861653106 3.091895538 
3.0976257654 3.1033559928 3.1090862203 3.1090862203 3.1033559928 3.0976257654 3.091895538 3.0861653106 3.0861653106 
3.0861653106 3.0861653106 3.0861653106 3.0861653106 3.091895538 3.0976257654 3.1033559928 3.1090862203 3.1090862203 
3.1148164477 3.1148164477 3.1148164477 3.1090862203 3.1090862203 3.1033559928 3.0976257654 3.0976257654 3.091895538 
3.0861653106 3.0861653106 3.0861653106 3.0861653106 3.091895538 3.091895538 3.0976257654 3.0976257654 3.1033559928 
3.1090862203 3.1148164477 3.1148164477 3.1148164477 3.1148164477 3.1148164477 3.1090862203 3.1033559928 3.0976257654 
3.091895538 3.0861653106 3.0861653106 3.0861653106 3.0861653106 3.0861653106 3.0861653106 3.091895538 3.0976257654 
3.1033559928 3.1090862203 3.1148164477 3.1148164477 3.1148164477 3.1148164477 3.1090862203 3.1090862203 3.1033559928 
3.0976257654 3.091895538 3.0861653106 3.0861653106 3.0861653106 3.0861653106 3.0861653106 3.091895538 3.0976257654 
3.1033559928 3.1090862203 3.1090862203 3.1148164477 3.1148164477 3.1148164477 3.1090862203 3.1033559928 3.1033559928 
3.0976257654 3.091895538 3.0861653106 3.0861653106 3.0861653106 3.0861653106 3.0861653106 3.091895538 3.091895538 
3.0976257654 3.1033559928 3.1033559928 3.1090862203 3.1148164477 3.1148164477 3.1148164477 3.1148164477 3.1090862203 
3.1033559928 3.0976257654 3.091895538 3.091895538 3.0861653106 3.0861653106 3.0861653106 3.0861653106 3.0861653106 
3.0861653106 3.0861653106 3.091895538 3.0976257654 3.1033559928 3.1090862203 3.1148164477 3.1148164477 3.1148164477 
3.1090862203 3.1090862203 3.1033559928 3.0976257654 3.091895538 3.0861653106 3.0861653106 3.0861653106 3.0861653106 
3.0861653106 3.0861653106 3.091895538 3.0976257654 3.1033559928 3.1090862203 3.1148164477 3.1148164477 3.1090862203 
3.1033559928 3.0976257654 3.091895538 3.0861653106 3.0861653106 3.0861653106 3.0861653106 3.0861653106 3.091895538 
3.0976257654 3.1033559928 3.1090862203 3.1148164477 3.1148164477 3.1148164477 3.1090862203 3.1033559928 3.1033559928 
3.0976257654 3.091895538 3.0861653106 3.0804350832 3.0804350832 3.0804350832 3.0861653106 3.0861653106 3.0861653106 
3.0861653106 3.091895538 3.0976257654 3.1033559928 3.1090862203 3.1148164477 3.1148164477 3.1148164477 3.1090862203 
3.1033559928 3.0976257654 3.091895538 3.0861653106 3.0861653106 3.0804350832 3.0804350832 3.0804350832 3.0804350832 
3.0861653106 3.0861653106 3.0861653106 3.0861653106 3.0861653106 3.091895538 3.0976257654 3.1033559928 3.1090862203 
3.1148164477 3.1148164477 3.1090862203 3.1090862203 3.1033559928 3.0976257654 3.091895538 3.0861653106 3.0804350832 
3.0804350832 3.0804350832 3.0861653106 3.0861653106 3.0861653106 3.0861653106 3.0861653106 3.091895538 3.0976257654 
3.1033559928 3.1090862203 3.1090862203 3.1148164477 3.1148164477 3.1205466751 3.1205466751 3.1205466751 3.1205466751 
3.1205466751 3.1148164477 3.1090862203 3.1033559928 3.0976257654 3.091895538 3.0861653106 3.0804350832 3.0804350832 
3.0804350832 3.0861653106 3.0861653106 3.0861653106 3.0861653106 3.091895538 3.0976257654 3.1033559928 3.1090862203 
3.1148164477 3.1205466751 3.1205466751 3.1205466751 3.1205466751 3.1205466751 3.1148164477 3.1148164477 3.1090862203 
3.1033559928 3.0976257654 3.091895538 3.0861653106 3.0804350832 3.0804350832 3.0804350832 3.0861653106 3.0861653106 
3.0861653106 3.0861653106 3.0861653106 3.091895538 3.0976257654 3.1033559928 3.1090862203 3.1148164477 3.1148164477 
3.1205466751 3.1205466751 3.1148164477 3.1090862203 3.1033559928 3.0976257654 3.091895538 3.0861653106 3.0804350832 
3.0804350832 3.0804350832 3.0861653106 3.0861653106 3.0861653106 3.0861653106 3.0861653106 3.091895538 3.0976257654 
3.0976257654 3.1033559928 3.1033559928 3.1090862203 3.1148164477 3.1205466751 3.1205466751 3.1205466751 3.1205466751 
3.1148164477 3.1090862203 3.1033559928 3.0976257654 3.091895538 3.0861653106 3.0804350832 3.0804350832 3.0804350832 
3.0861653106 3.0861653106 3.0861653106 3.0861653106 3.0861653106 3.0861653106 3.0861653106 3.091895538 3.0976257654 
3.0976257654 3.1033559928 3.1090862203 3.1148164477 3.1205466751 3.1205466751 3.1205466751 3.1148164477 3.1148164477 
3.1090862203 3.1090862203 3.1033559928 3.0976257654 3.091895538 3.0861653106 3.0804350832 3.0804350832 3.0804350832 
3.0861653106 3.0861653106 3.0861653106 3.0861653106 3.0861653106 3.091895538 3.0976257654 3.1033559928 3.1090862203 
3.1148164477 3.1205466751 3.1205466751 3.1205466751 3.1148164477 3.1090862203 3.1033559928 3.1033559928 3.0976257654 
3.091895538 3.0861653106 3.0861653106 3.0804350832 3.0804350832 3.0804350832 3.0861653106 3.0861653106 3.0861653106 
3.0861653106 3.091895538 3.091895538 3.0976257654 3.1033559928 3.1090862203 3.1148164477 3.1148164477 3.1205466751 
3.1205466751 3.1205466751 3.1148164477 3.1090862203 3.1033559928 3.0976257654 3.091895538 3.091895538 3.0861653106 
3.0804350832 3.0804350832 3.0861653106 3.0861653106 3.0861653106 3.0861653106 3.091895538 3.0976257654 3.1033559928 
3.1090862203 3.1090862203 3.1148164477 3.1205466751 3.1262769025 3.1262769025 3.1262769025 3.1205466751 3.1205466751 
3.1148164477 3.1148164477 3.1090862203 3.1033559928 3.0976257654 3.091895538 3.0861653106 3.0804350832 3.0804350832 
3.0804350832 3.0861653106 3.0861653106 3.0861653106 3.0861653106 3.091895538 3.0976257654 3.1033559928 3.1090862203 
3.1148164477 3.1205466751 3.1262769025 3.1262769025 3.1262769025 3.1262769025 3.1262769025 3.1262769025 3.1205466751 
3.1148164477 3.1090862203 3.1090862203 3.1033559928 3.0976257654 3.0976257654 3.091895538 3.0861653106 3.0804350832 
3.0804350832 3.0861653106 3.0861653106 3.0861653106 3.0804350832 3.0804350832 3.0804350832 3.0804350832 3.0804350832 
3.0861653106 3.091895538 3.0976257654 3.1033559928 3.1090862203 3.1148164477 3.1205466751 3.1205466751 3.1262769025 
3.1262769025 3.1262769025 3.1205466751 3.1205466751 3.1148164477 3.1090862203 3.1033559928 3.0976257654 3.091895538 
3.0861653106 3.0804350832 3.0804350832 3.0861653106 3.0861653106 3.0804350832 3.0804350832 3.0804350832 3.0804350832 
3.0804350832 3.0804350832 3.0804350832 3.0804350832 3.0861653106 3.091895538 3.0976257654 3.1033559928 3.1090862203 
3.1148164477 3.1148164477 3.1205466751 3.1262769025 3.1262769025 3.1262769025 3.1205466751 3.1148164477 3.1148164477 
3.1090862203 3.1033559928 3.1033559928 3.0976257654 3.091895538 3.0861653106 3.0804350832 3.0804350832 3.0804350832 
3.0861653106 3.0861653106 3.0804350832 3.0804350832 3.0804350832 3.0804350832 3.0804350832 3.0861653106 3.091895538 
3.0976257654 3.1033559928 3.1090862203 3.1148164477 3.1205466751 3.1262769025 3.1262769025 3.1262769025 3.1205466751 
3.1148164477 3.1090862203 3.1033559928 3.0976257654 3.091895538 3.0861653106 3.0804350832 3.0804350832 3.0861653106 
3.0861653106 3.0804350832 3.0804350832 3.0804350832 3.0861653106 3.0861653106 3.091895538 3.0976257654 3.1033559928 
3.1090862203 3.1090862203 3.1148164477 3.1205466751 3.1262769025 3.1262769025 3.1262769025 3.1205466751 3.1205466751 
3.1148164477 3.1090862203 3.1033559928 3.0976257654 3.091895538 3.0861653106 3.0804350832 3.0804350832 3.0804350832 
3.0861653106 3.0861653106 3.0804350832 3.0804350832 3.0804350832 3.0804350832 3.0861653106 3.091895538 3.091895538 
3.0976257654 3.1033559928 3.1090862203 3.1148164477 3.1205466751 3.1205466751 3.1262769025 3.1262769025 3.13200713 
3.13200713 3.13200713 3.13200713 3.13200713 3.13200713 3.1262769025 3.1205466751 3.1148164477 3.1090862203 
3.1090862203 3.1033559928 3.0976257654 3.091895538 3.0861653106 3.0804350832 3.0804350832 3.0861653106 3.0861653106 
3.0804350832 3.0804350832 3.0861653106 3.091895538 3.0976257654 3.1033559928 3.1090862203 3.1148164477 3.1205466751 
3.1262769025 3.13200713 3.13200713 3.13200713 3.13200713 3.1262769025 3.1262769025 3.1205466751 3.1148164477 
3.1148164477 3.1090862203 3.1033559928 3.0976257654 3.091895538 3.0861653106 3.0804350832 3.0804350832 3.0861653106 
3.0861653106 3.0861653106 3.0804350832 3.0804350832 3.0804350832 3.0804350832 3.0861653106 3.091895538 3.0976257654 
3.1033559928 3.1090862203 3.1148164477 3.1205466751 3.1262769025 3.1262769025 3.13200713 3.13200713 3.1262769025 
3.1205466751 3.1205466751 3.1148164477 3.1090862203 3.1033559928 3.0976257654 3.0976257654 3.091895538 3.0861653106 