# vtk DataFile Version 4.2
vtk output
ASCII
DATASET POLYDATA
POINTS 18781 float
1339.54 -4233.21 0 1344.72 -4250.21 0 2395.43 -4250.19 0 
2404.82 -4247.98 0 2441.82 -4239.28 0 2467.76 -4233.18 0 
1334.36 -4216.21 0 2478.82 -4230.58 0 2486.69 -4216.18 0 
1329.19 -4199.21 0 1331.79 -4207.76 0 2495.17 -4199.18 0 
1324.01 -4182.21 0 2502.87 -4182.18 0 1318.83 -4165.21 0 
2510.11 -4165.18 0 1313.65 -4148.21 0 2515.82 -4149.64 0 
2516.37 -4148.18 0 1308.47 -4131.21 0 2522.67 -4131.17 0 
1303.29 -4114.21 0 2528.97 -4114.17 0 1298.12 -4097.21 0 
2535.27 -4097.17 0 1292.94 -4080.21 0 1294.79 -4086.3 0 
2541.57 -4080.17 0 1287.76 -4063.2 0 2547.88 -4063.17 0 
1282.58 -4046.2 0 2552.83 -4049.8 0 2554.18 -4046.17 0 
1277.4 -4029.2 0 2560.48 -4029.17 0 1272.23 -4012.2 0 
2566.78 -4012.17 0 1267.05 -3995.2 0 2573.08 -3995.17 0 
1261.87 -3978.2 0 2579.39 -3978.16 0 1256.69 -3961.2 0 
1257.8 -3964.84 0 2585.69 -3961.16 0 1251.22 -3944.2 0 
2589.84 -3949.97 0 2591.99 -3944.16 0 1241.74 -3927.2 0 
2598.29 -3927.16 0 1230.6 -3910.2 0 2604.59 -3910.16 0 
1219.47 -3893.2 0 1220.8 -3895.23 0 2610.9 -3893.16 0 
1208.34 -3876.2 0 2617.2 -3876.16 0 1197.2 -3859.19 0 
2623.5 -3859.16 0 1186.07 -3842.19 0 2626.84 -3850.13 0 
2629.8 -3842.16 0 1174.94 -3825.19 0 1183.81 -3838.74 0 
2636.1 -3825.15 0 1163.8 -3808.19 0 2642.41 -3808.15 0 
1152.67 -3791.19 0 2648.71 -3791.15 0 1141.53 -3774.19 0 
1146.81 -3782.24 0 2655.01 -3774.15 0 1130.4 -3757.19 0 
2661.31 -3757.15 0 1119.27 -3740.19 0 2663.85 -3750.3 0 
2667.61 -3740.15 0 1108.13 -3723.19 0 1109.81 -3725.75 0 
2673.92 -3723.15 0 1097 -3706.19 0 2680.22 -3706.15 0 
1085.87 -3689.19 0 2686.52 -3689.14 0 1074.73 -3672.19 0 
2692.82 -3672.14 0 1063.6 -3655.19 0 1072.81 -3669.25 0 
2699.12 -3655.14 0 1052.47 -3638.19 0 2700.86 -3650.46 0 
2705.42 -3638.14 0 1041.33 -3621.18 0 2711.73 -3621.14 0 
1030.2 -3604.18 0 1035.82 -3612.76 0 2718.03 -3604.14 0 
1019.07 -3587.18 0 2724.33 -3587.14 0 1007.93 -3570.18 0 
2730.63 -3570.14 0 996.798 -3553.18 0 998.818 -3556.27 0 
2736.93 -3553.14 0 985.665 -3536.18 0 2737.87 -3550.62 0 
2743.24 -3536.13 0 974.531 -3519.18 0 2749.54 -3519.13 0 
963.398 -3502.18 0 2755.84 -3502.13 0 952.264 -3485.18 0 
961.82 -3499.77 0 2762.14 -3485.13 0 941.13 -3468.18 0 
2768.44 -3468.13 0 929.997 -3451.18 0 2774.75 -3451.13 0 
918.863 -3434.18 0 924.822 -3443.28 0 2774.87 -3450.79 0 
2781.05 -3434.13 0 907.73 -3417.18 0 2787.35 -3417.13 0 
896.596 -3400.18 0 2784.57 -3400.12 0 885.463 -3383.18 0 
887.825 -3386.78 0 2774.88 -3385.7 0 2772.98 -3383.12 0 
874.329 -3366.17 0 2759.27 -3366.12 0 863.195 -3349.17 0 
2745.21 -3349.12 0 852.062 -3332.17 0 2737.88 -3340.26 0 
2731.15 -3332.12 0 840.928 -3315.17 0 850.827 -3330.29 0 
2717.09 -3315.12 0 829.795 -3298.17 0 2703.04 -3298.12 0 
821.898 -3281.17 0 2700.88 -3295.51 0 2688.98 -3281.12 0 
820.059 -3264.17 0 2674.92 -3264.12 0 818.858 -3247.17 0 
2663.88 -3250.77 0 2660.86 -3247.12 0 818.012 -3230.17 0 
2646.8 -3230.12 0 817.385 -3213.17 0 2632.75 -3213.12 0 
816.901 -3196.17 0 2626.88 -3206.02 0 2618.69 -3196.12 0 
816.614 -3179.17 0 2604.63 -3179.12 0 816.541 -3162.16 0 
2590.58 -3162.12 0 816.468 -3145.16 0 2589.88 -3161.28 0 
2576.52 -3145.12 0 816.394 -3128.16 0 2562.46 -3128.11 0 
816.321 -3111.16 0 2552.89 -3116.54 0 2548.4 -3111.11 0 
816.248 -3094.16 0 2536.9 -3094.11 0 816.174 -3077.16 0 
2533.49 -3077.11 0 816.101 -3060.16 0 2536.91 -3060.11 0 
816.028 -3043.16 0 2540.33 -3043.11 0 815.954 -3026.16 0 
2543.75 -3026.11 0 815.881 -3009.16 0 2547.17 -3009.11 0 
815.808 -2992.15 0 2550.58 -2992.11 0 815.734 -2975.15 0 
2552.89 -2980.62 0 2554 -2975.11 0 815.661 -2958.15 0 
2557.42 -2958.1 0 816.258 -2941.15 0 2560.84 -2941.1 0 
817.984 -2924.15 0 2564.26 -2924.1 0 819.714 -2907.15 0 
2567.68 -2907.1 0 821.445 -2890.15 0 2571.1 -2890.1 0 
823.175 -2873.15 0 2574.52 -2873.1 0 824.905 -2856.15 0 
2577.94 -2856.1 0 826.635 -2839.14 0 2581.36 -2839.1 0 
828.366 -2822.14 0 2584.78 -2822.1 0 830.096 -2805.14 0 
2588.19 -2805.09 0 -1147.2 -2795.11 0 -1151.97 -2788.2 0 
-1110.19 -2800.15 0 -1073.19 -2797.46 0 -1036.19 -2794.78 0 
-999.191 -2792.09 0 -962.19 -2789.41 0 -945.371 -2788.19 0 
831.826 -2788.14 0 2589.91 -2796.59 0 2591.61 -2788.09 0 
-1163.71 -2771.19 0 -925.189 -2786.73 0 -888.188 -2784.04 0 
-851.187 -2781.36 0 -814.185 -2778.67 0 -777.184 -2775.99 0 
-740.183 -2773.3 0 -710.954 -2771.18 0 827.991 -2771.14 0 
2595.03 -2771.09 0 -1175.45 -2754.19 0 -703.182 -2770.62 0 
-666.181 -2767.93 0 -629.18 -2765.25 0 -592.178 -2759.19 0 
-579.136 -2754.18 0 824.931 -2754.14 0 2598.45 -2754.09 0 
-1184.19 -2741.53 0 -1187.19 -2737.19 0 -555.176 -2744.98 0 
-534.864 -2737.18 0 823.209 -2737.14 0 2601.87 -2737.09 0 
-1198.93 -2720.19 0 -518.175 -2730.77 0 -490.591 -2720.17 0 
818.95 -2720.14 0 2605.29 -2720.09 0 -1210.67 -2703.19 0 
-481.173 -2716.56 0 -446.318 -2703.17 0 811.434 -2703.14 0 
813.863 -2707.29 0 2608.71 -2703.09 0 -1221.19 -2687.95 0 
-1222.41 -2686.19 0 -444.171 -2702.35 0 -407.169 -2688.14 0 
-402.311 -2686.17 0 804.299 -2686.14 0 2612.13 -2686.09 0 
-1234.15 -2669.19 0 -370.167 -2673.48 0 -359.803 -2669.17 0 
798.758 -2669.14 0 2615.55 -2669.09 0 -1245.89 -2652.19 0 
-333.165 -2658.07 0 -318.987 -2652.16 0 792.028 -2652.13 0 
2618.97 -2652.09 0 -1257.63 -2635.19 0 -296.163 -2642.66 0 
-278.171 -2635.16 0 785.297 -2635.13 0 2622.39 -2635.08 0 
-1258.19 -2634.37 0 -1269.37 -2618.19 0 -259.162 -2627.24 0 
-237.355 -2618.16 0 778.567 -2618.13 0 2625.8 -2618.08 0 
-1281.11 -2601.19 0 -222.16 -2611.83 0 -196.539 -2601.16 0 
771.836 -2601.13 0 776.867 -2613.84 0 2626.92 -2612.55 0 
2629.22 -2601.08 0 -1292.85 -2584.19 0 -185.158 -2596.42 0 
-155.723 -2584.16 0 765.105 -2584.13 0 2632.64 -2584.08 0 
-1295.19 -2580.8 0 -1304.58 -2567.19 0 -148.156 -2581 0 
-114.908 -2567.15 0 758.375 -2567.13 0 2636.06 -2567.08 0 
-1316.32 -2550.19 0 -111.154 -2565.59 0 -74.152 -2550.18 0 
-74.0919 -2550.15 0 751.644 -2550.13 0 2639.48 -2550.08 0 
-1328.06 -2533.19 0 -37.1501 -2534.76 0 -33.2756 -2533.15 0 
744.914 -2533.13 0 2642.9 -2533.08 0 -1332.18 -2527.22 0 
-1339.8 -2516.18 0 -0.14806 -2517.16 0 0.226641 -2516.15 0 
738.183 -2516.13 0 739.872 -2520.39 0 2646.32 -2516.08 0 
-1351.54 -2499.18 0 3.61796 -2499.15 0 731.452 -2499.13 0 
2649.74 -2499.08 0 -1363.28 -2482.18 0 7.00928 -2482.15 0 
724.722 -2482.13 0 2653.16 -2482.07 0 -1369.18 -2473.64 0 
-1375.02 -2465.18 0 10.4006 -2465.14 0 717.991 -2465.13 0 
2656.58 -2465.07 0 -1386.76 -2448.18 0 13.7919 -2448.14 0 
711.261 -2448.12 0 2660 -2448.07 0 -1398.5 -2431.18 0 
17.1832 -2431.14 0 704.53 -2431.12 0 2663.42 -2431.07 0 
-1406.18 -2420.06 0 -1410.24 -2414.18 0 20.5745 -2414.14 0 
697.799 -2414.12 0 702.876 -2426.95 0 2663.93 -2428.51 0 
2666.83 -2414.07 0 -1421.98 -2397.18 0 23.9659 -2397.14 0 
691.069 -2397.12 0 1406.86 -2397.1 0 1442.9 -2409.36 0 
1479.9 -2401.11 0 1487.83 -2397.1 0 2670.25 -2397.07 0 
-1433.72 -2380.18 0 27.3572 -2380.14 0 684.338 -2380.12 0 
1356.87 -2380.1 0 1368.9 -2384.19 0 1405.9 -2396.77 0 
1516.9 -2382.4 0 1521.45 -2380.1 0 2673.67 -2380.07 0 
-1443.18 -2366.48 0 -1445.46 -2363.18 0 30.7486 -2363.14 0 
677.608 -2363.12 0 1315.64 -2363.1 0 1331.9 -2371.61 0 
1553.9 -2363.69 0 1555.07 -2363.1 0 2677.09 -2363.07 0 
-1457.2 -2346.18 0 34.1399 -2346.14 0 670.877 -2346.12 0 
1287.52 -2346.1 0 1294.9 -2350.61 0 1588.69 -2346.09 0 
2680.51 -2346.07 0 -1468.94 -2329.18 0 36.8638 -2332.48 0 
37.5312 -2329.14 0 664.146 -2329.12 0 665.881 -2333.5 0 
1259.67 -2329.1 0 1590.91 -2344.97 0 1622.31 -2329.09 0 
2683.93 -2329.06 0 -1480.18 -2312.9 0 -1480.68 -2312.18 0 
40.9225 -2312.14 0 657.416 -2312.12 0 1231.83 -2312.1 0 
1257.9 -2328.02 0 1627.91 -2326.26 0 1655.93 -2312.09 0 
2687.35 -2312.06 0 -1492.42 -2295.18 0 44.3138 -2295.13 0 
650.685 -2295.12 0 1203.98 -2295.1 0 1220.9 -2305.43 0 
1664.91 -2307.55 0 1689.55 -2295.09 0 2690.77 -2295.06 0 
-1504.28 -2278.17 0 47.7051 -2278.13 0 643.955 -2278.12 0 
1176.14 -2278.1 0 1183.9 -2282.84 0 1701.91 -2292.05 0 
1738.91 -2284.59 0 1775.91 -2278.95 0 1781.93 -2278.09 0 
2694.19 -2278.06 0 -1517.17 -2261.71 0 -1517.6 -2261.17 0 
51.0965 -2261.13 0 637.224 -2261.12 0 1148.29 -2261.1 0 
1812.92 -2273.62 0 1849.92 -2268.29 0 1886.92 -2262.97 0 
1900.01 -2261.08 0 2697.61 -2261.06 0 -1530.98 -2244.17 0 
54.4878 -2244.13 0 630.493 -2244.11 0 1120.45 -2244.1 0 
1146.9 -2260.25 0 1923.92 -2257.64 0 1951.5 -2244.08 0 
2700 -2244.06 0 -1544.36 -2227.17 0 57.8791 -2227.13 0 
623.896 -2227.11 0 628.885 -2240.05 0 1092.6 -2227.1 0 
1109.9 -2237.66 0 1960.92 -2237.09 0 1966.85 -2227.08 0 
2694.09 -2227.06 0 -1554.17 -2214.71 0 -1557.74 -2210.17 0 
62.1099 -2210.13 0 618.853 -2210.11 0 1064.75 -2210.1 0 
1072.9 -2215.07 0 1976.69 -2210.08 0 2688.48 -2210.06 0 
-1571.13 -2193.17 0 68.1358 -2193.13 0 616.176 -2193.11 0 
1036.91 -2193.1 0 1986.29 -2193.08 0 2682.6 -2193.06 0 
-1584.51 -2176.17 0 73.874 -2176.94 0 74.1617 -2176.13 0 
613.5 -2176.11 0 1009.06 -2176.1 0 1035.9 -2192.49 0 
1995.64 -2176.07 0 2676.72 -2176.06 0 3625.97 -2180.31 0 
3617.11 -2176.03 0 3656.81 -2176.03 0 -1591.17 -2167.71 0 
-1597.89 -2159.17 0 80.1876 -2159.12 0 610.824 -2159.11 0 
988.697 -2159.1 0 998.899 -2169.9 0 1997.93 -2171.84 0 
2004.4 -2159.07 0 2670.83 -2159.05 0 3595.25 -2159.03 0 
3662.97 -2175.25 0 3699.97 -2169.04 0 3736.97 -2162.82 0 
3759.58 -2159.03 0 -1611.27 -2142.17 0 86.2135 -2142.12 0 
608.147 -2142.11 0 973.287 -2142.1 0 2013.14 -2142.07 0 
2666.18 -2142.05 0 3588.97 -2154.15 0 3573.39 -2142.03 0 
3773.98 -2156.61 0 3810.98 -2150.39 0 3847.98 -2144.18 0 
3860.82 -2142.02 0 -1624.65 -2125.17 0 92.2393 -2125.12 0 
605.471 -2125.11 0 960.369 -2125.1 0 961.901 -2128.97 0 
2021.83 -2125.07 0 2663.95 -2126.54 0 2663.75 -2125.05 0 
3551.97 -2125.37 0 3551.53 -2125.03 0 3884.98 -2137.96 0 
3921.98 -2131.75 0 3958.98 -2125.54 0 3961.06 -2125.02 0 
-1628.17 -2120.7 0 -1638.03 -2108.17 0 98.2652 -2108.12 0 
602.795 -2108.11 0 953.638 -2108.1 0 2030.52 -2108.07 0 
2661.56 -2108.05 0 3529.67 -2108.03 0 3995.98 -2113.84 0 
[...]
POINT_DATA 18781
SCALARS Pressure double
LOOKUP_TABLE default
3.091895538 3.091895538 3.091895538 3.091895538 3.091895538 3.091895538 3.091895538 3.091895538 3.091895538 
3.091895538 3.091895538 3.091895538 3.091895538 3.091895538 3.091895538 3.091895538 3.091895538 3.091895538 
3.091895538 3.091895538 3.091895538 3.091895538 3.091895538 3.091895538 3.091895538 3.091895538 3.091895538 
3.091895538 3.091895538 3.091895538 3.091895538 3.091895538 3.091895538 3.091895538 3.091895538 3.091895538 
3.091895538 3.091895538 3.091895538 3.091895538 3.091895538 3.091895538 3.091895538 3.091895538 3.091895538 
3.091895538 3.091895538 3.091895538 3.091895538 3.091895538 3.091895538 3.091895538 3.091895538 3.091895538 
3.091895538 3.091895538 3.091895538 3.091895538 3.091895538 3.091895538 3.091895538 3.091895538 3.091895538 
3.091895538 3.091895538 3.091895538 3.091895538 3.091895538 3.091895538 3.091895538 3.091895538 3.091895538 
3.091895538 3.091895538 3.091895538 3.091895538 3.091895538 3.091895538 3.091895538 3.091895538 3.091895538 
3.091895538 3.091895538 3.091895538 3.091895538 3.091895538 3.091895538 3.091895538 3.091895538 3.091895538 
3.091895538 3.091895538 3.091895538 3.091895538 3.091895538 3.091895538 3.091895538 3.091895538 3.091895538 
3.091895538 3.091895538 3.091895538 3.091895538 3.091895538 3.091895538 3.091895538 3.091895538 3.091895538 
3.091895538 3.091895538 3.091895538 3.091895538 3.091895538 3.091895538 3.091895538 3.091895538 3.091895538 
3.091895538 3.091895538 3.091895538 3.091895538 3.091895538 3.091895538 3.091895538 3.091895538 3.091895538 
3.091895538 3.091895538 3.091895538 3.091895538 3.091895538 3.091895538 3.091895538 3.091895538 3.091895538 
3.091895538 3.091895538 3.091895538 3.091895538 3.091895538 3.091895538 3.091895538 3.091895538 3.091895538 
3.091895538 3.091895538 3.091895538 3.091895538 3.091895538 3.091895538 3.091895538 3.091895538 3.091895538 
3.091895538 3.091895538 3.091895538 3.091895538 3.091895538 3.091895538 3.091895538 3.091895538 3.091895538 
3.091895538 3.091895538 3.091895538 3.091895538 3.091895538 3.091895538 3.091895538 3.091895538 3.091895538 
3.091895538 3.091895538 3.091895538 3.091895538 3.091895538 3.091895538 3.091895538 3.091895538 3.091895538 
3.091895538 3.091895538 3.091895538 3.091895538 3.091895538 3.091895538 3.091895538 3.091895538 3.091895538 
3.091895538 3.091895538 3.091895538 3.091895538 3.091895538 3.091895538 3.091895538 3.091895538 3.091895538 
3.091895538 3.091895538 3.091895538 3.091895538 3.091895538 3.091895538 3.091895538 3.0861653106 3.0861653106 
3.0861653106 3.0861653106 3.0861653106 3.0861653106 3.0861653106 3.0861653106 3.091895538 3.091895538 3.091895538 
3.0861653106 3.0861653106 3.0861653106 3.0861653106 3.0861653106 3.0861653106 3.0861653106 3.0861653106 3.091895538 
3.091895538 3.0861653106 3.0861653106 3.0861653106 3.0861653106 3.0861653106 3.0861653106 3.091895538 3.091895538 
3.0861653106 3.0861653106 3.0861653106 3.0861653106 3.091895538 3.091895538 3.0861653106 3.0861653106 3.0861653106 
3.091895538 3.091895538 3.0861653106 3.0861653106 3.0861653106 3.091895538 3.091895538 3.091895538 3.0861653106 
3.0861653106 3.0861653106 3.0861653106 3.0861653106 3.091895538 3.091895538 3.0861653106 3.0861653106 3.0861653106 
3.091895538 3.091895538 3.0861653106 3.0861653106 3.0861653106 3.091895538 3.091895538 3.0861653106 3.0861653106 
3.0861653106 3.091895538 3.091895538 3.0861653106 3.0861653106 3.0861653106 3.0861653106 3.091895538 3.091895538 
3.0861653106 3.0861653106 3.0861653106 3.091895538 3.091895538 3.091895538 3.091895538 3.0861653106 3.0861653106 
3.0861653106 3.091895538 3.091895538 3.0861653106 3.0861653106 3.0861653106 3.0861653106 3.091895538 3.091895538 
3.0861653106 3.0861653106 3.0861653106 3.0861653106 3.091895538 3.091895538 3.0861653106 3.0861653106 3.0861653106 
3.091895538 3.091895538 3.0861653106 3.0861653106 3.0861653106 3.0861653106 3.091895538 3.091895538 3.091895538 
3.0861653106 3.0861653106 3.091895538 3.091895538 3.0861653106 3.0861653106 3.091895538 3.091895538 3.0861653106 
3.0861653106 3.0861653106 3.091895538 3.091895538 3.0861653106 3.0861653106 3.091895538 3.091895538 3.0861653106 
3.0861653106 3.091895538 3.091895538 3.0861653106 3.0861653106 3.0861653106 3.091895538 3.091895538 3.091895538 
3.091895538 3.0861653106 3.0861653106 3.091895538 3.0976257654 3.0976257654 3.0976257654 3.0976257654 3.091895538 
3.0861653106 3.0861653106 3.091895538 3.0976257654 3.0976257654 3.0976257654 3.0976257654 3.0976257654 3.091895538 
3.0861653106 3.0861653106 3.0861653106 3.091895538 3.0976257654 3.0976257654 3.0976257654 3.0976257654 3.091895538 
3.0861653106 3.0861653106 3.091895538 3.0976257654 3.0976257654 3.0976257654 3.091895538 3.0861653106 3.0861653106 
3.0861653106 3.091895538 3.091895538 3.0976257654 3.0976257654 3.0976257654 3.091895538 3.0861653106 3.0861653106 
3.0861653106 3.091895538 3.0976257654 3.0976257654 3.0976257654 3.0976257654 3.091895538 3.0861653106 3.0861653106 
3.091895538 3.0976257654 3.0976257654 3.0976257654 3.0976257654 3.091895538 3.0861653106 3.0861653106 3.091895538 
3.0976257654 3.0976257654 3.0976257654 3.0976257654 3.0976257654 3.0976257654 3.091895538 3.0861653106 3.0861653106 
3.0861653106 3.091895538 3.0976257654 3.0976257654 3.0976257654 3.0976257654 3.0976257654 3.091895538 3.0861653106 
3.0861653106 3.091895538 3.0976257654 3.0976257654 3.0976257654 3.0976257654 3.091895538 3.0861653106 3.0861653106 
3.091895538 3.091895538 3.0976257654 3.0976257654 3.0976257654 3.0976257654 3.091895538 3.0861653106 3.0861653106 
3.0861653106 3.091895538 3.0976257654 3.0976257654 3.0976257654 3.091895538 3.0861653106 3.0861653106 3.091895538 
3.0976257654 3.0976257654 3.091895538 3.0861653106 3.0861653106 3.0861653106 3.091895538 3.0976257654 3.0976257654 
3.0976257654 3.091895538 3.0861653106 3.0861653106 3.0861653106 3.0861653106 3.0861653106 3.0861653106 3.091895538 
3.0976257654 3.0976257654 3.0976257654 3.0976257654 3.091895538 3.0861653106 3.0861653106 3.0861653106 3.0861653106 
3.0861653106 3.0861653106 3.0861653106 3.091895538 3.0976257654 3.0976257654 3.091895538 3.0861653106 3.0861653106 
3.0861653106 3.0861653106 3.0861653106 3.0861653106 3.0861653106 3.0861653106 3.091895538 3.0976257654 3.0976257654 
3.0976257654 3.091895538 3.091895538 3.0861653106 3.0861653106 3.0861653106 3.0861653106 3.0861653106 3.0861653106 
3.0861653106 3.0861653106 3.0861653106 3.091895538 3.0976257654 3.0976257654 3.091895538 3.0861653106 3.0861653106 
3.0861653106 3.0861653106 3.0861653106 3.091895538 3.0976257654 3.0976257654 3.0976257654 3.091895538 3.0861653106 
3.0861653106 3.0861653106 3.0861653106 3.0861653106 3.091895538 3.0976257654 3.0976257654 3.091895538 3.0861653106 
3.0861653106 3.0861653106 3.0861653106 3.0861653106 3.0861653106 3.0861653106 3.091895538 3.0976257654 3.0976257654 
3.091895538 3.0861653106 3.0861653106 3.0861653106 3.0861653106 3.0861653106 3.0861653106 3.091895538 3.0976257654 
3.0976257654 3.091895538 3.0861653106 3.0861653106 3.0861653106 3.0861653106 3.0861653106 3.091895538 3.091895538 
3.0976257654 3.0976257654 3.0976257654 3.091895538 3.0861653106 3.0861653106 3.0861653106 3.0861653106 3.0861653106 
3.0861653106 3.091895538 3.0976257654 3.0976257654 3.091895538 3.0861653106 3.0861653106 3.0861653106 3.0861653106 
3.0861653106 3.091895538 3.0976257654 3.0976257654 3.0976257654 3.091895538 3.0861653106 3.0861653106 3.0861653106 
3.0861653106 3.0861653106 3.0861653106 3.091895538 3.0976257654 3.0976257654 3.091895538 3.0861653106 3.0861653106 
3.0861653106 3.0861653106 3.0861653106 3.0861653106 3.0861653106 3.091895538 3.0976257654 3.0976257654 3.091895538 
3.0861653106 3.0861653106 3.0861653106 3.0861653106 3.091895538 3.0976257654 3.0976257654 3.0976257654 3.091895538 
3.0861653106 3.0861653106 3.0861653106 3.0861653106 3.0861653106 3.0861653106 3.091895538 3.0976257654 3.0976257654 
3.091895538 3.0861653106 3.0861653106 3.0861653106 3.0861653106 3.0861653106 3.0861653106 3.0861653106 3.091895538 
3.0976257654 3.0976257654 3.091895538 3.0861653106 3.0861653106 3.0861653106 3.0861653106 3.091895538 3.0976257654 
3.1033559928 3.1033559928 3.1033559928 3.1033559928 3.1033559928 3.1033559928 3.1033559928 3.1033559928 3.1033559928 
3.1033559928 3.0976257654 3.0976257654 3.091895538 3.0861653106 3.0861653106 3.0861653106 3.0861653106 3.0861653106 
3.0861653106 3.0861653106 3.091895538 3.0976257654 3.0976257654 3.1033559928 3.1033559928 3.1033559928 3.1033559928 
3.1033559928 3.0976257654 3.091895538 3.0861653106 3.0861653106 3.0861653106 3.0861653106 3.0861653106 3.091895538 
3.0976257654 3.1033559928 3.1033559928 3.1033559928 3.1033559928 3.0976257654 3.091895538 3.0861653106 3.0861653106 
3.0861653106 3.0861653106 3.0861653106 3.091895538 3.0976257654 3.1033559928 3.1033559928 3.1033559928 3.0976257654 
3.0976257654 3.091895538 3.0861653106 3.0861653106 3.0861653106 3.0861653106 3.0861653106 3.0861653106 3.091895538 
3.0976257654 3.1033559928 3.1033559928 3.1033559928 3.1033559928 3.0976257654 3.091895538 3.0861653106 3.0861653106 
3.0861653106 3.0861653106 3.0861653106 3.0861653106 3.091895538 3.0976257654 3.1033559928 3.1033559928 3.1033559928 
3.0976257654 3.091895538 3.0861653106 3.0861653106 3.0861653106 3.0861653106 3.0861653106 3.091895538 3.0976257654 
3.1033559928 3.1033559928 3.1033559928 3.0976257654 3.0976257654 3.091895538 3.0861653106 3.0861653106 3.0861653106 
3.0861653106 3.0804350832 3.0804350832 3.0804350832 3.0861653106 3.091895538 3.0976257654 3.0976257654 3.1033559928 
3.1033559928 3.0976257654 3.091895538 3.091895538 3.0861653106 3.0861653106 3.0861653106 3.0861653106 3.0804350832 
3.0804350832 3.0804350832 3.0804350832 3.0804350832 3.0861653106 3.0861653106 3.091895538 3.0976257654 3.1033559928 
3.1033559928 3.1033559928 3.0976257654 3.091895538 3.0861653106 3.0861653106 3.0861653106 3.0861653106 3.0804350832 
3.0804350832 3.0804350832 3.0804350832 3.0861653106 3.091895538 3.0976257654 3.1033559928 3.1033559928 3.1033559928 
3.0976257654 3.091895538 3.0861653106 3.0861653106 3.0861653106 3.0861653106 3.0804350832 3.0804350832 3.0804350832 
3.0804350832 3.0861653106 3.091895538 3.0976257654 3.1033559928 3.1033559928 3.0976257654 3.091895538 3.0861653106 
3.0861653106 3.0861653106 3.0861653106 3.0804350832 3.0804350832 3.0804350832 3.0804350832 3.0861653106 3.091895538 
3.0976257654 3.1033559928 3.1033559928 3.1033559928 3.0976257654 3.091895538 3.0861653106 3.0861653106 3.0861653106 
3.0861653106 3.0861653106 3.0804350832 3.0804350832 3.0804350832 3.0804350832 3.0861653106 3.0861653106 3.091895538 
3.0976257654 3.1033559928 3.1033559928 3.1033559928 3.0976257654 3.091895538 3.0861653106 3.0861653106 3.0861653106 
3.0804350832 3.0804350832 3.0804350832 3.0804350832 3.0804350832 3.0861653106 3.091895538 3.0976257654 3.0976257654 
3.1033559928 3.1033559928 3.0976257654 3.091895538 3.0861653106 3.0861653106 3.0861653106 3.0861653106 3.0804350832 
3.0804350832 3.0804350832 3.0804350832 3.0861653106 3.091895538 3.0976257654 3.1033559928 3.1033559928 3.1033559928 
3.1033559928 3.0976257654 3.091895538 3.0861653106 3.0861653106 3.0861653106 3.0861653106 3.0804350832 3.0804350832 
3.0804350832 3.0804350832 3.0861653106 3.091895538 3.0976257654 3.1033559928 3.1033559928 3.0976257654 3.091895538 
3.0861653106 3.0861653106 3.0861653106 3.0861653106 3.0804350832 3.0804350832 3.0804350832 3.0861653106 3.091895538 
3.0976257654 3.1033559928 3.1033559928 3.0976257654 3.091895538 3.0861653106 3.0861653106 3.0861653106 3.0861653106 
3.0861653106 3.0804350832 3.0804350832 3.0804350832 3.0804350832 3.0861653106 3.091895538 3.091895538 3.0976257654 
3.1033559928 3.1033559928 3.0976257654 3.091895538 3.0861653106 3.0861653106 3.0861653106 3.0804350832 3.0804350832 
3.0804350832 3.0861653106 3.091895538 3.0976257654 3.0976257654 3.1033559928 3.1033559928 3.1033559928 3.0976257654 
3.091895538 3.0861653106 3.0861653106 3.0861653106 3.0861653106 3.0804350832 3.0804350832 3.0861653106 3.091895538 
3.0976257654 3.1033559928 3.1033559928 3.0976257654 3.091895538 3.0861653106 3.0861653106 3.0861653106 3.0861653106 
3.0804350832 3.0804350832 3.0861653106 3.091895538 3.0976257654 3.1033559928 3.1033559928 3.1033559928 3.0976257654 
3.0976257654 3.091895538 3.0861653106 3.0861653106 3.0861653106 3.0804350832 3.0804350832 3.0804350832 3.0804350832 
3.0861653106 3.091895538 3.0976257654 3.1033559928 3.1033559928 3.1033559928 3.0976257654 3.091895538 3.0861653106 
3.0861653106 3.0861653106 3.0804350832 3.0804350832 3.0861653106 3.091895538 3.0976257654 3.0976257654 3.1033559928 
3.1090862203 3.1090862203 3.1090862203 3.1090862203 3.1090862203 3.1090862203 3.1033559928 3.0976257654 3.091895538 
3.0861653106 3.0861653106 3.0861653106 3.0861653106 3.0861653106 3.0804350832 3.0804350832 3.0861653106 3.091895538 
3.0976257654 3.1033559928 3.1090862203 3.1090862203 3.1090862203 3.1090862203 3.1090862203 3.1090862203 3.1090862203 
3.1033559928 3.0976257654 3.091895538 3.0861653106 3.0861653106 3.0861653106 3.0861653106 3.0804350832 3.0804350832 
3.0804350832 3.0861653106 3.091895538 3.0976257654 3.1033559928 3.1090862203 3.1090862203 3.1090862203 3.1033559928 
3.0976257654 3.091895538 3.0861653106 3.0861653106 3.0861653106 3.0804350832 3.0804350832 3.0804350832 3.0861653106 
3.091895538 3.0976257654 3.1033559928 3.1033559928 3.1090862203 3.1090862203 3.1090862203 3.1033559928 3.1033559928 
3.0976257654 3.091895538 3.0861653106 3.0861653106 3.0861653106 3.0804350832 3.0804350832 3.0861653106 3.0861653106 
3.091895538 3.0976257654 3.1033559928 3.1090862203 3.1090862203 3.1090862203 3.1033559928 3.0976257654 3.091895538 
3.0861653106 3.0861653106 3.0861653106 3.0861653106 3.0804350832 3.0804350832 3.0804350832 3.0861653106 3.091895538 
3.0976257654 3.1033559928 3.1090862203 3.1090862203 3.1033559928 3.0976257654 3.091895538 3.0861653106 3.0861653106 
3.0861653106 3.0861653106 3.0804350832 3.0804350832 3.0861653106 3.091895538 3.0976257654 3.1033559928 3.1033559928 
3.1090862203 3.1090862203 3.1090862203 3.1090862203 3.1033559928 3.0976257654 3.091895538 3.0861653106 3.0861653106 
3.0861653106 3.0804350832 3.0804350832 3.0804350832 3.0861653106 3.091895538 3.0976257654 3.1033559928 3.1090862203 
3.1090862203 3.1033559928 3.0976257654 3.091895538 3.0861653106 3.0861653106 3.0861653106 3.0861653106 3.0804350832 
3.0804350832 3.0804350832 3.0861653106 3.091895538 3.0976257654 3.1033559928 3.1090862203 3.1090862203 3.1090862203 
3.1090862203 3.1033559928 3.0976257654 3.091895538 3.0861653106 3.0861653106 3.0861653106 3.0861653106 3.0804350832 
3.0804350832 3.0861653106 3.091895538 3.0976257654 3.0976257654 3.1033559928 3.1033559928 3.1090862203 3.1090862203 
3.1033559928 3.1033559928 3.0976257654 3.091895538 3.0861653106 3.0861653106 3.0861653106 3.0804350832 3.0804350832 
3.0804350832 3.0861653106 3.091895538 3.0976257654 3.1033559928 3.1090862203 3.1090862203 3.1090862203 3.1090862203 
3.1033559928 3.0976257654 3.091895538 3.0861653106 3.0861653106 3.0861653106 3.0861653106 3.0804350832 3.0804350832 
3.0804350832 3.0861653106 3.091895538 3.0976257654 3.1033559928 3.1090862203 3.1090862203 3.1090862203 3.1033559928 
3.0976257654 3.0976257654 3.091895538 3.0861653106 3.0861653106 3.0861653106 3.0861653106 3.0804350832 3.0804350832 
3.0861653106 3.091895538 3.0976257654 3.1033559928 3.1033559928 3.1090862203 3.1090862203 3.1033559928 3.0976257654 
3.091895538 3.091895538 3.0861653106 3.0861653106 3.0861653106 3.0804350832 3.0804350832 3.0861653106 3.091895538 
3.0976257654 3.1033559928 3.1090862203 3.1090862203 3.1090862203 3.1033559928 3.0976257654 3.091895538 3.0861653106 
3.0861653106 3.0861653106 3.0804350832 3.0804350832 3.0804350832 3.0804350832 3.0861653106 3.091895538 3.0976257654 
3.1033559928 3.1090862203 3.1090862203 3.1090862203 3.1090862203 3.1033559928 3.0976257654 3.091895538 3.0861653106 
3.0861653106 3.0861653106 3.0861653106 3.0804350832 3.0804350832 3.0861653106 3.091895538 3.0976257654 3.0976257654 
3.1033559928 3.1090862203 3.1090862203 3.1033559928 3.0976257654 3.091895538 3.0861653106 3.0861653106 3.0861653106 
3.0861653106 3.0804350832 3.0804350832 3.0861653106 3.091895538 3.091895538 3.0976257654 3.1033559928 3.1033559928 
3.1090862203 3.1090862203 3.1033559928 3.0976257654 3.091895538 3.0861653106 3.0861653106 3.0861653106 3.0804350832 
3.0804350832 3.0804350832 3.0861653106 3.091895538 3.0976257654 3.1033559928 3.1090862203 3.1090862203 3.1090862203 
3.1033559928 3.0976257654 3.091895538 3.0861653106 3.0861653106 3.0861653106 3.0804350832 3.0804350832 3.0861653106 
3.091895538 3.0976257654 3.1033559928 3.1090862203 3.1148164477 3.1148164477 3.1148164477 3.1148164477 3.1148164477 
3.1148164477 3.1090862203 3.1090862203 3.1033559928 3.0976257654 3.091895538 3.0861653106 3.0861653106 3.0861653106 
3.0861653106 3.0861653106 3.0804350832 3.0747048557 3.0747048557 3.0747048557 3.0747048557 3.0804350832 3.0861653106 
3.091895538 3.0976257654 3.0976257654 3.1033559928 3.1090862203 3.1148164477 3.1148164477 3.1148164477 3.1148164477 
3.1148164477 3.1090862203 3.1033559928 3.0976257654 3.091895538 3.0861653106 3.0861653106 3.0861653106 3.0804350832 
3.0747048557 3.0747048557 3.0747048557 3.0747048557 3.0747048557 3.0747048557 3.0747048557 3.0747048557 3.0747048557 
3.0747048557 3.0804350832 3.0861653106 3.091895538 3.0976257654 3.1033559928 3.1033559928 3.1090862203 3.1090862203 
3.1148164477 3.1148164477 3.1148164477 3.1148164477 3.1090862203 3.1033559928 3.1033559928 3.0976257654 3.091895538 
3.0861653106 3.0861653106 3.0861653106 3.0804350832 3.0804350832 3.0747048557 3.0747048557 3.0804350832 3.0861653106 
3.091895538 3.0976257654 3.1033559928 3.1090862203 3.1148164477 3.1148164477 3.1148164477 3.1090862203 3.1033559928 
3.0976257654 3.091895538 3.0861653106 3.0861653106 3.0861653106 3.0861653106 3.0804350832 3.0747048557 3.0747048557 
3.0804350832 3.0861653106 3.091895538 3.0976257654 3.1033559928 3.1090862203 3.1148164477 3.1148164477 3.1148164477 
3.1090862203 3.1090862203 3.1033559928 3.0976257654 3.091895538 3.091895538 3.0861653106 3.0861653106 3.0861653106 
3.0804350832 3.0747048557 3.0747048557 3.0747048557 3.0747048557 3.0804350832 3.0804350832 3.0861653106 3.091895538 
3.0976257654 3.1033559928 3.1090862203 3.1148164477 3.1148164477 3.1148164477 3.1148164477 3.1090862203 3.1033559928 
3.0976257654 3.091895538 3.0861653106 3.0861653106 3.0861653106 3.0861653106 3.0804350832 3.0747048557 3.0747048557 
3.0804350832 3.0861653106 3.091895538 3.0976257654 3.1033559928 3.1033559928 3.1090862203 3.1090862203 3.1148164477 
3.1148164477 3.1148164477 3.1090862203 3.1033559928 3.0976257654 3.091895538 3.0861653106 3.0861653106 3.0861653106 
3.0861653106 3.0804350832 3.0747048557 3.0747048557 3.0747048557 3.0747048557 3.0804350832 3.0861653106 3.091895538 
3.091895538 3.0976257654 3.1033559928 3.1090862203 3.1148164477 3.1148164477 3.1148164477 3.1090862203 3.1033559928 
3.0976257654 3.091895538 3.0861653106 3.0861653106 3.0861653106 3.0804350832 3.0747048557 3.0747048557 3.0804350832 
3.0861653106 3.091895538 3.0976257654 3.1033559928 3.1090862203 3.1148164477 3.1148164477 3.1148164477 3.1148164477 
3.1090862203 3.1090862203 3.1033559928 3.0976257654 3.091895538 3.0861653106 3.0861653106 3.0861653106 3.0804350832 
3.0747048557 3.0747048557 3.0747048557 3.0804350832 3.0861653106 3.091895538 3.0976257654 3.1033559928 3.1090862203 
3.1148164477 3.1148164477 3.1148164477 3.1090862203 3.1033559928 3.0976257654 3.091895538 3.0861653106 3.0861653106 
3.0861653106 3.0861653106 3.0804350832 3.0747048557 3.0747048557 3.0747048557 3.0747048557 3.0804350832 3.0861653106 
3.091895538 3.0976257654 3.0976257654 3.1033559928 3.1090862203 3.1090862203 3.1148164477 3.1148164477 3.1090862203 
3.1033559928 3.0976257654 3.091895538 3.0861653106 3.0861653106 3.0861653106 3.0861653106 3.0804350832 3.0747048557 
3.0747048557 3.0747048557 3.0804350832 3.0861653106 3.091895538 3.0976257654 3.1033559928 3.1090862203 3.1148164477 