# vtk DataFile Version 4.2
vtk output
ASCII
DATASET UNSTRUCTURED_GRID
POINTS 1740 double
2144.07 -94.44003 0 2911 0 0 16.54298 -37.82236 0 
5.09149 -21.30132 0 1.27433 -10.75385 0 0 0 0 
2.54575 15.14293 0 6.36291 23.76126 0 14.00014 34.89063 0 
30.50239 50.70793 0 33.39435 -52.93479 0 2050.91 -103.7862 0 
60.1465 -69.72165 0 88.83633 -83.2817 0 118.7656 -94.71113 0 
153.4168 -105.7022 0 199.5806 -117.771 0 261.4466 -130.7139 0 
345.846 -144.1892 0 460.3522 -157.0592 0 608.4185 -167.1903 0 
783.2313 -172.4016 0 941.0559 -172.4533 0 1063.409 -170.1096 0 
1164.153 -166.8746 0 1263.449 -162.682 0 1375.468 -156.8941 0 
1513.293 -148.414 0 1665.281 -137.5317 0 1791.864 -127.3721 0 
2195.451 -89.09491 0 2273.924 -80.67077 0 2383.731 -68.3513 0 
2517.64 -52.47337 0 2649.227 -35.9232 0 2740.773 -23.82991 0 
2804.387 -15.13419 0 2848.802 -8.916218 0 2881.944 -4.196067 0 
56.61447 67.79801 0 84.09687 81.25172 0 112.4783 92.48395 0 
142.1748 102.3504 0 174.8563 111.6168 0 213.124 120.8806 0 
260.3759 130.5151 0 324.6539 141.1779 0 418.1422 152.9178 0 
535.6656 162.9871 0 690.9154 170.4255 0 902.6513 172.7852 0 
1100.32 169.0517 0 1270.99 162.3262 0 1462.794 151.6837 0 
1631.287 140.0952 0 1747.993 131 0 1922.788 115.9027 0 
2069.56 101.951 0 2128.804 96.0021 0 2297.147 78.11721 0 
2414.379 64.80104 0 2554.023 47.99319 0 2673.693 32.73885 0 
2757.97 21.50315 0 2814.297 13.7575 0 2852.02 8.460961 0 
2882.272 4.148909 0 1791.052 127.4402 0 1366.894 157.3738 0 
1444.38 -152.8302 0 1547.039 146.1296 0 1589.287 -143.1614 0 
1878.731 119.8675 0 1997.072 108.9828 0 1185.654 166.0472 0 
1882.536 -119.5292 0 1971.323 -111.4145 0 1684.777 136.0292 0 
2099.317 -98.9855 0 2234.809 84.9091 0 2181.695 90.53914 0 
1728.573 -132.5703 0 1718.815 133.3509 0 1834.825 123.7132 0 
1960.305 112.4444 0 2033.69 105.4648 0 2099.184 98.99892 0 
2214.291 -73.593491905 396.8421 2955.512 16.95445927 396.8421 158.0786 -29.473069414 396.8421 
147.0109 -13.651433993 396.8421 143.3217 -3.5287415312 396.8421 142.09 6.8081906773 396.8421 
144.5505 21.390726624 396.8421 148.2398 29.704601414 396.8421 155.621 40.457366994 396.8421 
171.5701 55.773801877 396.8421 174.3652 -43.905691125 396.8421 2124.254 -82.755382588 396.8421 
200.2206 -59.886539288 396.8421 227.9488 -72.750267179 396.8421 256.8748 -83.555938894 396.8421 
290.3647 -93.909483385 396.8421 334.981 -105.22610306 396.8421 394.7733 -117.28346445 396.8421 
476.3434 -129.71047153 396.8421 587.0114 -141.36921545 396.8421 730.1145 -150.19734865 396.8421 
899.0676 -154.16072102 396.8421 1051.602 -153.30441103 396.8421 1169.853 -150.38077959 396.8421 
1267.221 -146.74289678 396.8421 1363.188 -142.21591805 396.8421 1471.452 -136.12269575 396.8421 
1604.657 -127.36947661 396.8421 1751.55 -116.31548666 396.8421 1873.891 -106.11708899 396.8421 
2263.949 -68.374418513 396.8421 2339.792 -60.177098292 396.8421 2445.918 -48.246740703 396.8421 
2575.338 -32.961245754 396.8421 2702.515 -17.125927762 396.8421 2790.992 -5.6114213601 396.8421 
2852.473 2.6411511197 396.8421 2895.4 8.5292164262 396.8421 2927.431 12.992014244 396.8421 
196.807 72.373331386 396.8421 223.3682 85.483304757 396.8421 250.7983 96.462129502 396.8421 
279.4994 106.13548753 396.8421 311.0855 115.25046105 396.8421 348.0705 124.39785723 396.8421 
393.7383 133.95819617 396.8421 455.8617 144.61426193 396.8421 546.2162 156.48921483 396.8421 
659.8003 166.90664564 396.8421 809.846 175.02143515 396.8421 1014.485 178.56858376 396.8421 
1205.528 176.11312086 396.8421 1370.477 170.5607826 396.8421 1555.851 161.26221095 396.8421 
1718.696 150.84119489 396.8421 1831.49 142.53294422 396.8421 2000.426 128.56181228 396.8421 
2142.278 115.49244931 396.8421 2199.537 109.88046208 396.8421 2362.236 92.884004233 396.8421 
2475.539 80.120405669 396.8421 2610.501 63.8927875 396.8421 2726.16 49.06337486 396.8421 
2807.613 38.084672319 396.8421 2862.05 30.490593526 396.8421 2898.509 25.286309463 396.8421 
2927.749 21.042797911 396.8421 1873.106 139.25710266 396.8421 1463.165 166.27982337 396.8421 
1538.054 -131.90827595 396.8421 1637.272 156.29524029 396.8421 1678.104 -122.01405856 396.8421 
1957.846 132.24975306 396.8421 2072.22 122.09664536 396.8421 1288 173.69005137 396.8421 
1961.524 -98.30563804 396.8421 2047.334 -90.270472837 396.8421 1770.393 147.13879824 396.8421 
2171.038 -78.043448345 396.8421 2301.989 99.359365603 396.8421 2250.655 104.70798526 396.8421 
1812.721 -111.3227191 396.8421 1803.29 144.6892765 396.8421 1915.411 135.8145465 396.8421 
2036.686 125.33505806 396.8421 2107.61 118.79670018 396.8421 2170.909 112.71034459 396.8421 
2284.511 -54.646812969 793.6842 3000.027 32.234932713 793.6842 299.6143 -20.004304181 793.6842 
288.9304 -4.8402747003 793.6842 285.3691 4.8804474707 793.6842 284.1801 14.820907937 793.6842 
286.5551 28.867264037 793.6842 290.1167 36.888012698 793.6842 297.2417 47.275905472 793.6842 
312.6379 62.102204181 793.6842 315.336 -33.802719717 793.6842 2197.597 -63.574529646 793.6842 
340.2947 -49.038190783 793.6842 367.0612 -61.263934661 793.6842 394.9839 -71.503027831 793.6842 
427.3123 -81.282586579 793.6842 470.3812 -91.929279094 793.6842 528.0998 -103.20887816 793.6842 
606.8411 -114.7324882 793.6842 713.6708 -125.37499376 793.6842 851.8104 -133.15049462 793.6842 
1014.904 -136.15809651 793.6842 1162.147 -134.65197885 793.6842 1276.298 -131.34268233 793.6842 
1370.288 -127.45684296 793.6842 1462.927 -122.74261034 793.6842 1567.436 -116.50265327 793.6842 
1696.021 -107.65784572 793.6842 1837.82 -96.612392394 793.6842 1955.917 -86.50655815 793.6842 
2332.447 -49.575285814 793.6842 2405.659 -41.628861434 793.6842 2508.105 -30.102546678 793.6842 
2633.037 -15.395766366 793.6842 2755.801 -0.22471160754 793.6842 2841.209 10.769490997 793.6842 
2900.561 18.631433437 793.6842 2941.997 24.23231596 793.6842 2972.917 28.472923676 793.6842 
336.9995 78.213483055 793.6842 362.6396 90.973403712 793.6842 389.1182 101.68663816 793.6842 
416.8239 111.14993393 793.6842 447.3145 120.09076894 793.6842 483.0167 129.09076467 793.6842 
527.1009 138.53311891 793.6842 587.0697 149.11467202 793.6842 674.2905 161.0121224 793.6842 
783.9349 171.61684397 793.6842 928.7766 180.16951145 793.6842 1126.317 184.54655642 793.6842 
1310.735 183.01777647 793.6842 1469.963 178.33365576 793.6842 1648.908 170.04690036 793.6842 
1806.105 160.52133918 793.6842 1914.987 152.82673994 793.6842 2078.064 139.75270559 793.6842 
2214.996 127.40737657 793.6842 2270.269 122.07842536 793.6842 2427.326 105.85291872 793.6842 
2536.699 93.594244397 793.6842 2666.98 77.930802789 793.6842 2778.628 63.550737107 793.6842 
2857.255 52.868829166 793.6842 2909.806 45.463869495 793.6842 2945.001 40.382067518 793.6842 
2973.224 36.234349668 793.6842 1955.16 149.77469235 793.6842 1559.437 174.55589272 793.6842 
1631.729 -112.23039644 793.6842 1727.505 165.52819319 793.6842 1766.921 -102.29257665 793.6842 
2036.96 143.2175836 793.6842 2147.368 133.65776534 793.6842 1390.347 181.02317889 793.6842 
2040.511 -78.808692267 793.6842 2123.346 -70.923147544 793.6842 1856.009 157.10128285 793.6842 
2242.759 -58.978931371 793.6842 2369.167 112.04880924 793.6842 2319.614 117.15362996 793.6842 
1896.869 -91.656329952 793.6842 1887.765 154.83053536 793.6842 1995.998 146.55796143 793.6842 
2113.066 136.71391765 793.6842 2181.531 130.53754504 793.6842 2242.634 124.7675052 793.6842 
2354.732 -37.319618853 1190.526 3044.539 46.017016855 1190.526 441.15 -9.7942781699 1190.526 
430.8497 4.7458416512 1190.526 427.4164 14.082707711 1190.526 426.2701 23.642690894 1190.526 
428.5601 37.171306278 1190.526 431.9934 44.907202644 1190.526 438.8627 54.938413263 1190.526 
453.7057 69.280834563 1190.526 456.3069 -22.995819233 1190.526 2270.94 -45.973568689 1190.526 
480.3688 -37.535812316 1190.526 506.1737 -49.171721798 1190.526 533.0934 -58.891472806 1190.526 
564.26 -68.149495852 1190.526 605.7815 -78.193827537 1190.526 661.4265 -88.783636913 1190.526 
737.3385 -99.52141872 1190.526 840.33 -109.30392845 1190.526 973.5064 -116.22513086 1190.526 
1130.74 -118.50557443 1190.526 1272.693 -116.54899214 1190.526 1382.742 -113.00304348 1190.526 
1473.356 -108.98754786 1190.526 1562.666 -104.19802273 1190.526 1663.42 -97.931224902 1190.526 
1787.385 -89.132360257 1190.526 1924.09 -78.23178049 1190.526 2037.944 -68.318238418 1190.526 
2400.946 -32.413150174 1190.526 2471.527 -24.738274363 1190.526 2570.292 -13.631576363 1190.526 
2690.735 0.49988646731 1190.526 2809.091 15.035815051 1190.526 2891.43 25.546222493 1190.526 
2948.647 33.051148169 1190.526 2988.597 38.39242702 1190.526 3018.403 42.433745708 1190.526 
477.1918 84.902591962 1190.526 501.9109 97.304420974 1190.526 527.4382 107.73960511 1190.526 
554.1485 116.97656323 1190.526 583.5435 125.72242587 1190.526 617.963 134.54772589 1190.526 
660.4633 143.83443118 1190.526 718.2775 154.28456261 1190.526 802.3645 166.11221607 1190.526 
908.0698 176.77508029 1190.526 1047.707 185.57800573 1190.526 1238.151 190.50869885 1190.526 
1415.942 189.63853275 1190.526 1569.449 185.59157722 1190.526 1741.965 178.06619477 1190.526 
1893.514 169.23059961 1190.526 1998.484 162.01854791 1190.526 2155.702 149.6670502 1190.526 
2287.714 137.92329845 1190.526 2341.001 132.83509082 1190.526 2492.415 117.28536731 1190.526 
2597.858 105.48932707 1190.526 2723.46 90.367955827 1190.526 2831.095 76.44485372 1190.526 
2906.899 66.080834377 1190.526 2957.56 58.886719706 1190.526 2991.49 53.945439378 1190.526 
3018.699 49.910049503 1190.526 2037.214 159.1447906 1190.526 1655.708 182.19011722 1190.526 
1725.403 -93.671371675 1190.526 1817.738 173.8908998 1190.526 1855.738 -83.827547528 1190.526 
2116.075 152.95022783 1190.526 2222.516 143.87736979 1190.526 1492.694 187.95642498 1190.526 
2119.498 -60.796662417 1190.526 2199.357 -53.114407012 1190.526 1941.625 166.03140563 1190.526 
2314.479 -41.516114837 1190.526 2436.346 123.23254419 1190.526 2388.573 128.12402451 1190.526 
1981.017 -73.363828323 1190.526 1972.24 163.9014935 1190.526 2076.584 156.10909923 1190.526 
[...]
POINT_DATA 1740
FIELD FieldData 1
Pressure 1 1740 double
3.1041583005 3.0189901873 3.0096278806 2.9857915213 2.9791709367 2.9592392007 2.9721127895 2.9892987711 3.020507655 
3.0346240866 3.0121000445 3.1081414258 3.0344808354 3.049116555 3.0664086817 3.0668732859 3.0836743871 3.0885767724 
3.1102681684 3.1149944005 3.1341272094 3.1428891145 3.1446200428 3.1510381672 3.1447165839 3.1408023295 3.1366799631 
3.132343783 3.1252195126 3.1191685142 3.101582078 3.098237615 3.0928220735 3.0847882862 3.0740348165 3.0640685443 
3.0542781002 3.045613596 3.0372340031 3.0704136476 3.0818240707 3.0939277516 3.1065797463 3.1127593328 3.1192402588 
3.126313997 3.1341658202 3.1496172286 3.162091714 3.1778687995 3.1881905067 3.1950788837 3.2007312579 3.2062774859 
3.2105697629 3.2139719563 3.2147970186 3.1628514374 3.0993023331 3.0891042487 3.0830885581 3.0741957132 3.0642541857 
3.0535898 3.042996696 3.0352232461 3.0336337687 3.2137504345 3.2041076219 3.1351394726 3.2081032166 3.1285639921 
3.2144074537 3.2158868743 3.2022100389 3.1155273772 3.1117120323 3.2120762065 3.1059541363 3.0928310468 3.0942834107 
3.1217072888 3.2136104166 3.2136813776 3.2156840338 3.2221341747 3.0926636062 3.1010705783 3.0237865738 3.0278991326 
3.0011484799 3.0074605945 2.9860313205 2.9922918458 3.0040470664 3.0337869653 3.0517087881 3.0369510267 3.1052820555 
3.0571850059 3.069938171 3.0829652619 3.0868707835 3.1024909515 3.1119265199 3.125524686 3.1303986439 3.1415473277 
3.1455154536 3.1491719309 3.1498168179 3.1439276572 3.1390759733 3.1330308299 3.1284864772 3.1218259312 3.1162382551 
3.0987122807 3.0946367031 3.0891661968 3.0810589824 3.0703670083 3.0604786314 3.050833262 3.0433458371 3.0283114766 
3.0845797147 3.1054991922 3.1169162665 3.1257744728 3.1346364283 3.1399724059 3.1451173313 3.1546048061 3.1667095777 
3.1759565579 3.1844989263 3.1920462082 3.1987422847 3.2049725761 3.2078387123 3.2107589596 3.2143153084 3.2164460328 
3.0914335885 3.0990812168 3.0925946517 3.086291414 3.0776131578 3.0666874222 3.0562770599 3.0460218141 3.0393093444 
3.039912808 3.2147409585 3.2064531956 3.1315879216 3.2108040016 3.1247698549 3.2160257539 3.2170765119 3.2039585487 
3.1124335798 3.1086625676 3.212674158 3.1032494905 3.0958221814 3.0982896137 3.1188584791 3.2134874357 3.2145075508 
3.2152638424 3.1801112557 3.0979572962 3.0985771138 3.0237664969 3.0278601669 3.0000614129 3.000721425 2.9836440589 
2.9943579971 3.0086868779 3.0383643259 3.0591200146 3.0457587882 3.1027156127 3.0606638332 3.0796730604 3.0975397306 
3.1033459999 3.117073456 3.125153913 3.1377792875 3.1435274739 3.151562662 3.1539912847 3.1528686759 3.1508080612 
3.1429220917 3.1367088716 3.1304644513 3.1252965723 3.1190048448 3.1137727698 3.096275726 3.0923649028 3.0867338117 
3.078961931 3.0681597075 3.0582277456 3.0491882125 3.0420963501 3.0288516044 3.0916049966 3.1131327144 3.1303133582 
3.1402898538 3.1523325703 3.160151856 3.169350693 3.1737627883 3.1820306089 3.1918442601 3.1963525591 3.2015047655 
3.2047378813 3.2114110986 3.2135924598 3.2143482607 3.2167668698 3.2195088904 3.0923170397 3.0939594843 3.0917659374 
3.0863895687 3.0784165197 3.0675664838 3.057496275 3.047548772 3.0403102896 3.0417504798 3.2173305614 3.2127830262 
3.1285994978 3.2146006429 3.1218321681 3.2182001837 3.2173156578 3.2091024225 3.1099467043 3.1061335046 3.2151422753 
3.1008264155 3.0941577779 3.0948963167 3.1162128643 3.2157052433 3.2176531864 3.2190224696 3.0864114189 3.0905957303 
3.0965656694 3.023969297 3.0283227957 2.9996482798 3.0005917108 2.9820817019 2.9913454481 3.0061779757 3.0390198008 
3.0597915591 3.0463438297 3.1006658113 3.0664347139 3.0843005154 3.1041883902 3.1122100728 3.125160989 3.1325307714 
3.1456755126 3.1522150012 3.1589096478 3.1591253574 3.1560313434 3.1510251019 3.1419545799 3.1354296794 3.1290614366 
3.123066724 3.1168489373 3.1115199745 3.0941303339 3.0904789999 3.0851203991 3.0774838855 3.066987046 3.0572090794 
3.0486225442 3.0415960373 3.0290685857 3.0946261586 3.1181257352 3.1325103231 3.144759609 3.1514558974 3.1627875939 
3.1751004403 3.1830063626 3.1910912887 3.2022819591 3.2073332034 3.2115521372 3.2130135484 3.2193633564 3.221220602 
3.2214488414 3.222810782 3.2284472186 3.0923029645 3.0931227344 3.091685281 3.0864599079 3.0782629281 3.06770763 
3.0577718274 3.0480620482 3.0406237037 3.0419957053 3.2229404813 3.2202830319 3.1266672224 3.2219841863 3.1198413412 
3.2231859533 3.0845393029 3.2166753312 3.1077787141 3.1039710571 3.2217915884 3.0987166451 3.0933885808 3.0935104032 
3.1140109008 3.2219256438 3.2232887063 3.1530408605 3.0894160817 3.0927030768 3.0948463945 3.0236439805 3.0300802301 
2.9998970434 3.0033103763 2.9849824756 2.9924822392 3.0067748566 3.0402666117 3.0604984155 3.0484006326 3.0989847507 
3.0702737092 3.0879023281 3.1056424604 3.1149792735 3.1281505922 3.1384023086 3.1489499347 3.1560012755 3.1631420904 
3.1620656938 3.1568890921 3.1496451037 3.1402523353 3.1334487572 3.1270328515 3.1210747343 3.1150285694 3.1096010938 
3.0926496393 3.0889297401 3.0837651827 3.0762643021 3.0660786639 3.0565467198 3.0482122333 3.0411234765 3.0292390442 
3.095269421 3.1191878199 3.133483971 3.1463146746 3.1554423923 3.1666063099 3.1774675682 3.1829237405 3.1937221248 
3.2066244603 3.2154261315 3.2189801914 3.2210797742 3.2267172473 3.2286998585 3.2284505289 3.229602721 3.2235220412 
3.0916841686 3.0922076511 3.0903044608 3.0850859674 3.0769676201 3.0666997096 3.0569581387 3.0473408734 3.039941024 
3.0415925446 3.2298053266 3.2278484698 3.1247625684 3.2287902074 3.1179401671 3.22886201 3.0897126856 3.2244275463 
3.1058923216 3.1021831912 3.2287918049 3.0970489489 3.0921915069 3.0922495387 3.1121728657 3.2289732688 3.2304860429 
3.0840377387 3.0914113365 3.0918571105 3.0934963535 3.0227255015 3.0310244679 3.0010186863 3.0037671142 2.9856961169 
2.99345812 3.0077248842 3.040906599 3.0614192777 3.0505662073 3.0974219758 3.0726723262 3.0910440281 3.1075708037 
3.1173522698 3.1307087611 3.1414260311 3.1530572626 3.1611706487 3.1668127233 3.1643502264 3.1570409998 3.1476448032 
3.1384787956 3.1315839974 3.1252860303 3.11904468 3.1132486025 3.1078621173 3.0912400577 3.0875646292 3.0825475453 
3.0751692632 3.0651828252 3.0557707172 3.0476081106 3.0404623236 3.0293977573 3.0956466097 3.1199819419 3.1343769765 
3.1473204923 3.1563326283 3.1680461309 3.1802152494 3.1868316189 3.1979097979 3.2108700565 3.2212847799 3.2265538456 
3.2288964692 3.2350821399 3.2363833803 3.2358058472 3.2364400456 3.1040815738 3.0911363029 3.0908010002 3.0881681525 
3.0829721938 3.0750018351 3.0649714898 3.0553753984 3.0459828977 3.0385753057 3.0403309738 3.2366433052 3.2357223112 
3.1228094978 3.2361836143 3.1160785843 3.2331282207 3.0893527969 3.2322086757 3.1042181851 3.1006419498 3.2356879105 
3.0954867405 3.0903420757 3.0902720719 3.110448877 3.2358791411 3.2370195829 3.0879003767 3.0908483595 3.0911453746 
3.092233798 3.0217265729 3.0309982774 3.0012170681 3.0023356989 2.9850223629 2.9935423278 3.0077664229 3.0407012371 
3.0615903213 3.0518967586 3.0961181836 3.0741784775 3.0931094998 3.1093774196 3.119509214 3.1329944301 3.1443632162 
3.1557839563 3.1642528674 3.1698091775 3.1659192822 3.1564227695 3.1454372061 3.1367811951 3.1299535317 3.1237836143 
3.1173749178 3.1117630938 3.1064703896 3.0899787307 3.0863722095 3.081481276 3.0742104084 3.0643703444 3.0550060241 
3.0469557037 3.039748681 3.0294850584 3.0954185291 3.1200547317 3.1344377637 3.1474800912 3.157029267 3.1687535527 
3.1809554659 3.1883746705 3.1997945279 3.2138906413 3.2252918377 3.232171738 3.2360409987 3.2426989096 3.2443789592 
3.243954242 3.2439858655 3.0936039247 3.0899828245 3.0891225775 3.0854966178 3.0804937074 3.072768577 3.0630317979 
3.053647509 3.044431925 3.0370826997 3.0390532971 3.2440336329 3.2439488192 3.1212178066 3.2444231461 3.1144842303 
3.2408164242 3.0907882365 3.2397378484 3.1028621201 3.0993710403 3.2436135619 3.0941202866 3.0876933348 3.0884090137 
3.1089435905 3.2435802433 3.2443782045 3.0891850783 3.0900477412 3.0894622424 3.0913077918 3.0209997276 3.031055365 
3.0016436757 3.0017546106 2.9848960873 2.9935938968 3.0076757072 3.0405230649 3.0613348088 3.0529224293 3.0951307562 
3.0751771013 3.0944675182 3.1105658948 3.1210125406 3.1346263442 3.1465259067 3.1577817524 3.1665003979 3.1720173515 
3.1668204486 3.1552592299 3.1435193627 3.1352932295 3.1285810927 3.1224073401 3.115952677 3.1105481021 3.1053184428 
3.089026298 3.0854813703 3.0806685141 3.0734812162 3.0637465002 3.0543968298 3.0464196015 3.0391498682 3.0295916635 
3.094923391 3.1197784284 3.1341909696 3.1472481964 3.1569170405 3.1688021711 3.1811194651 3.1892405023 3.2010242113 
3.2155168453 3.2279078472 3.2364329467 3.2416501211 3.249292923 3.2519647265 3.2517244474 3.2517717479 3.0945237616 
3.0868011288 3.0865806816 3.0829162243 3.0783207924 3.0709897417 3.0614699695 3.05229812 3.0433258444 3.0359973577 
3.0382728467 3.2519925488 3.2512574038 3.1198693752 3.2519156641 3.1131749922 3.248986981 3.087666473 3.2457882644 
3.1017648007 3.0983469789 3.251507168 3.0931581267 3.0850751322 3.0860081397 3.1077700181 3.251402032 3.252631708 
3.0886298914 3.0867950687 3.0867709369 3.0906097378 3.0207327252 3.0313836221 3.0021959127 3.001749575 2.9848535517 
2.9938989915 3.0078023465 3.040524603 3.0611494347 3.0534868196 3.0943646561 3.0759232061 3.0954526904 3.1114031062 
3.122068527 3.1358595714 3.1482017294 3.1593545759 3.1681714406 3.1737713373 3.1674247183 3.1540333044 3.1422108044 
3.1342882329 3.1275789148 3.1214907143 3.1149847345 3.1098233269 3.104601976 3.0883617477 3.0849319049 3.080189178 
3.0730736224 3.0633993653 3.0540168316 3.0460933488 3.0387672996 3.0296138855 3.0944794933 3.1194637388 3.1338096821 
3.1469431352 3.1567688225 3.1686787376 3.1809864245 3.1896270709 3.2018311113 3.2166406508 3.2296012681 3.2394679501 
3.2457574031 3.2543542201 3.2584437715 3.2585563845 3.2592584861 3.0990166306 3.0850605549 3.0844276664 3.0815337882 
3.0773148463 3.0703038875 3.0606993577 3.0516401836 3.0428706446 3.0355349992 3.0380257082 3.2595484847 3.2566788958 
3.118906047 3.2587095634 3.1123553995 3.2565276517 3.084115003 3.2503468025 3.1010824372 3.0977308988 3.2585327272 
3.0923976752 3.0834691679 3.0839560807 3.1070572915 3.2586007697 3.2597192467 3.0843973088 3.0846944956 3.0850491488 
3.090249136 3.0206714441 3.0319636317 3.0026707798 3.0018621138 2.98487075 2.9943275567 3.0080857452 3.0406117831 
3.0610655652 3.0539226239 3.0939936688 3.0764832846 3.0961840312 3.1120195236 3.1229115949 3.1368418368 3.1495753157 
3.1606107693 3.1695253721 3.1752688299 3.1680301227 3.1532513286 3.1416117076 3.1339668867 3.1272083131 3.1211794054 
3.114796834 3.1096210004 3.1043625029 3.0881475858 3.0847663272 3.0800531817 3.0729677715 3.0633188281 3.0538122867 
3.0459197614 3.0385602874 3.0295358669 3.0943232009 3.1193183894 3.1335978717 3.1467819229 3.1567778118 3.1687013361 
3.1810431157 3.1899966995 3.2025960366 3.2175780383 3.2309411375 3.2414595676 3.2485985472 3.257977539 3.2625021158 
3.263976542 3.2648436726 3.1135596485 3.0843306173 3.0835653005 3.0810394514 3.0766425299 3.0696794182 3.0599560187 
3.0509714448 3.0423381933 3.0349964575 3.0375585045 3.2653542114 3.2607674064 3.1186910643 3.2637785315 3.1121597771 
3.2638171584 3.0845241549 3.253556285 3.1008681245 3.0975615403 3.2643166715 3.091995626 3.0828008392 3.0833159115 
3.1068266755 3.2643805414 3.2658486117 3.0856455567 3.0841602887 3.0843208479 3.0902972419 3.0202389442 3.0323431953 
3.0030934227 3.0021883979 2.9850046372 2.9948875314 3.0084737407 3.0407787305 3.061268599 3.0541347833 3.0941065344 
3.0768456382 3.0968204457 3.1126458896 3.1237927947 3.1375841132 3.1505973667 3.161617502 3.1705964984 3.1766240914 
3.1688175824 3.1531114168 3.1416251275 3.1342618634 3.1274988052 3.1214771237 3.1150117772 3.1097015146 3.1043958185 
3.0882594516 3.0848453323 3.0801520385 3.0730378881 3.0633969375 3.0537436876 3.0458626804 3.0384640657 3.0294828039 
3.0945187141 3.11936228 3.1336068019 3.1468601013 3.1569662012 3.168953946 3.1812811399 3.1905404252 3.2034840004 
3.2184880123 3.2321782265 3.2430262009 3.2505718319 3.2605799585 3.2655683201 3.2676910829 3.2690471181 3.1393719401 
3.0811526737 3.0808056443 3.0788828235 3.0743900158 3.0674937661 3.057958648 3.0491076548 3.0406444307 3.0334211766 
3.0358648625 3.2698005404 3.2635679098 3.1188942801 3.2670823087 3.1123367825 3.2687779249 3.079755356 3.2557584988 
3.1009378001 3.0976465838 3.268260298 3.0920110293 3.0805037531 3.0807433557 3.1068658457 3.2685085955 3.270441318 
3.0820102202 3.0800764135 3.0813889029 3.0905996345 3.0195139238 3.0327316413 3.0034729419 3.0027511645 2.9852631167 
2.9954194528 3.0089015908 3.0410368659 3.0617773577 3.0542568932 3.0944336215 3.0771320812 3.0968105095 3.1125749852 
3.1239704996 3.1378011223 3.1510919061 3.1622459355 3.1711731747 3.1778519872 3.1698301312 3.1536402266 3.1419870143 
3.1348586581 3.1281332267 3.122066266 3.1154747886 3.1101757699 3.1047792481 3.0885587331 3.0850759609 3.0803736614 
3.0732032217 3.0635635506 3.0538095981 3.0459090888 3.0384535492 3.0297403195 3.0950416045 3.1195879086 3.1339842996 
3.147356401 3.1575202106 3.1695717968 3.1818271841 3.1913592442 3.2045584392 3.2194592855 3.2333835766 3.2444566409 
3.2521104352 3.2624688986 3.2677234546 3.2702295465 3.2719553172 3.1529860045 3.0780946762 3.0775368973 3.0753000482 
3.0708259712 3.0639902099 3.0548326977 3.0461144894 3.0378825061 3.030932553 3.0331662474 3.2728043549 3.2656895127 
3.1193744809 3.2694183098 3.1127468538 3.2724292313 3.0766233954 3.2573712035 3.1012879948 3.0978024362 3.2709462827 
3.0922935577 3.0769766008 3.0771454654 3.1072940478 3.2713285955 3.2737342066 3.0798114602 3.0772777787 3.0778872837 
3.0910382527 3.0190635182 3.0331050676 3.0040080819 3.0035962879 2.9856849864 2.9957482687 3.0093003892 3.0413540678 
3.0625400903 3.0542647676 3.0949657828 3.0770887474 3.0967585336 3.112290206 3.1239199705 3.1378385486 3.1512769548 
3.1623780822 3.1715081229 3.1790102492 3.1710864281 3.1546104426 3.1427325114 3.1357209077 3.128960769 3.1228356583 
3.1161051148 3.1107289505 3.1053255659 3.0890041031 3.0854407665 3.0807059801 3.0734595699 3.0637929314 3.0539734942 
3.04603923 3.0385244001 3.0300107215 3.0957251844 3.1199943346 3.1347769367 3.1483530759 3.1585646376 3.1706490461 
3.1827762411 3.1925245583 3.2058693577 3.220550841 3.2346209593 3.245841284 3.2534794601 3.2638210037 3.269455656 
3.2721273812 3.2739851644 3.1479584097 3.0741463003 3.0741307748 3.0716880138 3.0672140397 3.0605529672 3.0518198548 
3.0432997759 3.0353535165 3.0288683619 3.0306485354 3.2749346687 3.2672868563 3.1200771184 3.2712452348 3.1133855235 
3.2745354229 3.0731036615 3.2586965024 3.1018181388 3.0983366375 3.2729077425 3.0928089679 3.0733929588 3.073680326 
3.1078276254 3.273321995 3.2758435984 3.0759766835 3.0740069923 3.0741302589 3.0917284881 3.0195055808 3.033507665 
3.0046792027 3.0054788119 2.9865250607 2.9962187076 3.009768848 3.041762827 3.0635067189 3.0538245449 3.0957163044 
3.0765374677 3.0962491681 3.1116709741 3.1235503508 3.1373634394 3.1509418667 3.1623127053 3.1712356522 3.1800468406 
3.1725805531 3.156096861 3.1437589536 3.1367712587 3.1298835101 3.1237731589 3.1168094858 3.1114440842 3.1060105511 
3.0896361848 3.0859989702 3.081192154 3.0738588852 3.0641225666 3.0542194283 3.0462313908 3.0386822383 3.030054737 
3.0961581995 3.1205615812 3.1360008607 3.1497422341 3.1600222243 3.1720092822 3.184119444 3.1940181798 3.2074415678 
3.2218154127 3.2359749294 3.2472054197 3.2547962013 3.2650251781 3.2708030044 3.2737035521 3.2756251912 3.1258062065 
3.0693217659 3.0701094241 3.0694532355 3.0653505033 3.0593426292 3.0507114559 3.0423408789 3.0346882698 3.0284186093 
3.030379241 3.2767337828 3.2685977277 3.1208690109 3.2726685042 3.1141082585 3.2750502201 3.0688318775 3.2599218605 
3.1024654245 3.0990863911 3.2745094519 3.0935346848 3.0707977557 3.0706636767 3.1085392109 3.2749217097 3.2782426151 
3.0690795936 3.069878182 3.0694238559 3.0925393123 3.020608759 3.0339691927 3.0053793369 3.0081109579 2.9873543254 
2.9969257911 3.0104003029 3.0421825157 3.0648553508 3.0527243159 3.0965509255 3.075443268 3.0951064451 3.1104708697 
3.1225968675 3.1363188213 3.1500343356 3.1619592856 3.1715380792 3.1806351165 3.1741705397 3.1582209179 3.1450959182 
3.1379832902 3.1309118027 3.1247277979 3.1177394722 3.1123747024 3.1068748554 3.0903686263 3.0867036895 3.0818125476 
3.0743834873 3.0645334148 3.0545486685 3.04647511 3.038896131 3.0297382958 3.0966447907 3.1214724056 3.1372695888 
3.1512227725 3.1616638116 3.1734659438 3.1856415189 3.1957902503 3.2092058547 3.2232665673 3.237325582 3.2489068475 
3.2563491884 3.2663405505 3.2726671014 3.2758126822 3.277742869 3.0762338689 3.0702536402 3.0706197409 3.0712241912 
3.0673543935 3.0616297087 3.0526574708 3.044266242 3.0367496435 3.0305376851 3.0320650242 3.2791807601 3.2700118087 
3.1218518749 3.2744819455 3.1150055066 3.2683002868 3.0681236705 3.2612847798 3.1032382114 3.0998556171 3.2764543221 
3.0943640753 3.0726595915 3.0723822405 3.109488638 3.2769823157 3.2833187026 3.0636629928 3.0698161256 3.0704783306 
3.0933544605 3.0218512165 3.0337460834 3.0053738435 3.0110197927 2.9878493204 2.9978892227 3.0110110799 3.0424370567 
3.0661694744 3.0510459574 3.097435218 3.0730138796 3.0927647085 3.1082797327 3.1208069777 3.1344031958 3.1477115062 
3.1609711547 3.1703257546 3.1811270924 3.1761409117 3.1610028151 3.146751005 3.1394532938 3.1321319002 3.1259305057 
3.1189984684 3.1133364793 3.1080186817 3.0910944259 3.0874397306 3.082456026 3.0749099775 3.0648919389 3.0548230714 
3.046660538 3.0389494653 3.0286048798 3.0971141747 3.1224101453 3.1388621751 3.1530338751 3.1635985717 3.1753671195 
3.1873547497 3.197845093 3.2114060983 3.2252470803 3.2397252329 3.2511127673 3.2585390083 3.268721371 3.2762079629 
3.2789142241 3.2797466634 3.0741061555 3.0761183914 3.0753162446 3.0751164477 3.0712264312 3.0652967507 3.0561752735 
3.0478742914 3.0401459129 3.0337608892 3.0353269297 3.2803682839 3.2727004693 3.1230522685 3.2777207666 3.1162031769 
3.1658640526 3.0754592912 3.2632647567 3.1042700418 3.1007247415 3.2792053406 3.095215344 3.0763309666 3.0763181099 
3.1107250731 3.279441281 3.2827612503 3.0729003318 3.0758079988 3.0757051862 3.0940452038 3.0222903363 3.0305200855 
3.0037715309 3.0085451146 2.9858131921 2.9975574506 3.011643583 3.0444178037 3.0676532853 3.0477611126 3.0976876933 
3.0696357622 3.0893400939 3.1054785959 3.1173950335 3.131371075 3.1435729606 3.1600306714 3.1704818271 3.1828826223 
3.1796959687 3.1649788243 3.1502341033 3.1416505601 3.1337608319 3.1272763269 3.1205901746 3.1150843854 3.1095231803 
3.0919964995 3.0882525304 3.0831857673 3.0756146576 3.0653437601 3.0550233488 3.0466229073 3.0387453259 3.0267489279 
3.0995884827 3.1241328733 3.1419581277 3.1565527156 3.1671186589 3.1785526663 3.1901409905 3.2014671994 3.2155665048 
3.2295636699 3.2442611922 3.2588217668 3.2633929291 3.2727119051 3.2784045708 3.278891114 3.278628718 3.0716783712 
3.0796155045 3.079585145 3.0794680762 3.0752956157 3.0694382348 3.0600526326 3.0517860147 3.0437652216 3.0369825832 
3.0388772208 3.279030401 3.2761762774 3.1244375796 3.2787936612 3.1171995004 3.0556116592 3.0780939618 3.2673348386 
3.1050076058 3.1012211236 3.2790296634 3.0958855061 3.0803132533 3.0803429262 3.1123816808 3.2790937898 3.1368841249 
3.0759299062 3.0784470438 3.0796642342 3.0950054463 3.0243608279 3.0320347547 3.0056489344 3.0095444557 2.9880311854 
3.0025855073 3.0154777876 3.0522217525 3.0723712163 3.0478407681 3.099248713 3.0641111727 3.0852146966 3.102882497 
3.1177466171 3.1298543974 3.1441956888 3.1638013539 3.1842401374 3.1876934064 3.1835670931 3.1685319728 3.1534223476 
3.1427674846 3.1344796292 3.1283106659 3.1192757486 3.1135132608 3.1084086244 3.0927901552 3.0899260182 3.0843909334 
3.0755378947 3.0661825475 3.0550992359 3.0461772246 3.0376509591 3.0246838586 3.1023752121 3.1272680529 3.1504143206 
3.1641611065 3.1738422299 3.1880200267 3.1977748663 3.2084211356 3.2265749363 3.2379120609 3.2550105637 3.2646766484 