# vtk DataFile Version 4.2
vtk output
ASCII
DATASET POLYDATA
POINTS 15769 float
2630.3 -2405.09 5800 2638.91 -2405.62 5800 2639.86 -2405.09 5800 
2434.42 -2392.1 5800 2435.9 -2393.22 5800 2464.9 -2394.99 5800 
2493.9 -2396.76 5800 2522.9 -2398.54 5800 2551.9 -2400.31 5800 
2580.9 -2402.08 5800 2609.91 -2403.85 5800 2667.91 -2394.25 5800 
2670.3 -2392.09 5800 2411.01 -2379.1 5800 2685.07 -2379.09 5800 
2390.08 -2366.1 5800 2406.9 -2377.46 5800 2696.91 -2368.67 5800 
2699.84 -2366.09 5800 2368.98 -2353.1 5800 2377.9 -2358.19 5800 
2714.61 -2353.09 5800 2346.62 -2340.1 5800 2348.9 -2341.51 5800 
2725.91 -2343.13 5800 2729.38 -2340.09 5800 2328.29 -2327.1 5800 
2744.15 -2327.08 5800 2309.95 -2314.1 5800 2319.9 -2321.15 5800 
2754.92 -2317.6 5800 2758.92 -2314.08 5800 2291.62 -2301.1 5800 
2773.69 -2301.08 5800 2273.29 -2288.1 5800 2290.9 -2300.59 5800 
2783.92 -2292.07 5800 2788.46 -2288.08 5800 2254.96 -2275.1 5800 
2261.9 -2280.02 5800 2803.23 -2275.08 5800 2236.63 -2262.1 5800 
2812.92 -2266.54 5800 2818 -2262.08 5800 2218.29 -2249.1 5800 
2232.9 -2259.46 5800 2832.77 -2249.08 5800 2201.89 -2236.1 5800 
2203.9 -2238.89 5800 2841.93 -2241.01 5800 2847.54 -2236.07 5800 
2195.47 -2223.1 5800 2862.31 -2223.07 5800 2191.69 -2210.09 5800 
2870.93 -2215.48 5800 2877.08 -2210.07 5800 2190.91 -2197.09 5800 
2891.85 -2197.07 5800 2191.32 -2184.09 5800 2899.93 -2189.95 5800 
2906.62 -2184.07 5800 2191.74 -2171.09 5800 2921.39 -2171.07 5800 
2192.16 -2158.09 5800 2928.93 -2164.42 5800 2936.16 -2158.06 5800 
2192.57 -2145.09 5800 2950.93 -2145.06 5800 2192.99 -2132.09 5800 
2957.94 -2138.89 5800 2965.7 -2132.06 5800 2193.41 -2119.09 5800 
2980.47 -2119.06 5800 2193.82 -2106.09 5800 2986.94 -2113.6 5800 
2991.41 -2106.06 5800 2194.24 -2093.09 5800 2992.38 -2093.06 5800 
2194.66 -2080.08 5800 2993.34 -2080.06 5800 2195.07 -2067.08 5800 
2994.29 -2067.06 5800 2192.94 -2054.08 5800 2995.24 -2054.05 5800 
2190.08 -2041.08 5800 2996.18 -2041.05 5800 2187.23 -2028.08 5800 
2997.13 -2028.05 5800 2184.37 -2015.08 5800 2998.07 -2015.05 5800 
2181.51 -2002.08 5800 2999 -2002.05 5800 2178.66 -1989.08 5800 
2999.94 -1989.05 5800 2175.8 -1976.08 5800 3000.87 -1976.05 5800 
2172.94 -1963.08 5800 2174.92 -1972.08 5800 3001.8 -1963.05 5800 
2170.09 -1950.08 5800 3002.73 -1950.05 5800 2167.23 -1937.07 5800 
3003.65 -1937.05 5800 2164.38 -1924.07 5800 3004.57 -1924.04 5800 
2161.52 -1911.07 5800 3005.48 -1911.04 5800 2158.66 -1898.07 5800 
3006.38 -1898.04 5800 2155.81 -1885.07 5800 3007.28 -1885.04 5800 
2152.95 -1872.07 5800 3008.18 -1872.04 5800 2150.09 -1859.07 5800 
3009.09 -1859.04 5800 2147.24 -1846.07 5800 3009.99 -1846.04 5800 
2144.38 -1833.07 5800 2145.93 -1840.13 5800 3010.89 -1833.04 5800 
2141.52 -1820.07 5800 3011.79 -1820.04 5800 579.881 -1809.57 5800 
565.116 -1807.12 5800 586.837 -1807.12 5800 2138.67 -1807.07 5800 
3012.7 -1807.04 5800 550.88 -1801.78 5800 540.62 -1794.12 5800 
608.883 -1799.37 5800 623.807 -1794.12 5800 2135.81 -1794.06 5800 
3013.6 -1794.03 5800 527.388 -1781.12 5800 637.884 -1789.17 5800 
660.777 -1781.11 5800 2132.96 -1781.06 5800 3014.5 -1781.03 5800 
3857 -1791.31 5800 3851.22 -1781 5800 3886 -1790.4 5800 
3915 -1781.9 5800 3918.08 -1781 5800 521.882 -1774.24 5800 
509.501 -1768.12 5800 666.886 -1778.97 5800 695.888 -1768.77 5800 
697.747 -1768.11 5800 2130.1 -1768.06 5800 3015.6 -1768.03 5800 
3845.61 -1768 5800 3944 -1773.41 5800 3962.48 -1768 5800 
492.882 -1759.91 5800 483.195 -1755.12 5800 724.89 -1758.57 5800 
734.717 -1755.11 5800 2127.24 -1755.06 5800 3015.97 -1759.88 5800 
3016.31 -1755.03 5800 3838.77 -1755 5800 3973 -1764.92 5800 
4002 -1756.65 5800 4008.29 -1755 5800 463.882 -1745.57 5800 
456.89 -1742.12 5800 753.892 -1748.37 5800 771.687 -1742.11 5800 
2124.39 -1742.06 5800 3030.04 -1742.03 5800 3829.93 -1742 5800 
4031 -1749.02 5800 4057.89 -1741.99 5800 434.882 -1731.24 5800 
430.584 -1729.12 5800 782.893 -1738.17 5800 808.657 -1729.11 5800 
2121.52 -1729.06 5800 3037.73 -1729.03 5800 3828 -1739.59 5800 
3822.06 -1729 5800 4060.01 -1741.45 5800 4089.01 -1735.39 5800 
4118.01 -1729.33 5800 4119.63 -1728.99 5800 405.882 -1716.91 5800 
404.278 -1716.12 5800 811.895 -1727.97 5800 840.897 -1717.77 5800 
845.627 -1716.1 5800 2118.57 -1716.06 5800 3044.97 -1720.29 5800 
3048.82 -1716.03 5800 3814.77 -1716 5800 4147.01 -1723.27 5800 
4176.01 -1717.21 5800 4181.84 -1715.99 5800 377.973 -1703.12 5800 
869.899 -1707.57 5800 882.597 -1703.1 5800 2115.62 -1703.06 5800 
2116.94 -1708.89 5800 3059.28 -1703.03 5800 3807.48 -1703 5800 
4205.01 -1711.14 5800 4234.02 -1705.08 5800 4244.05 -1702.98 5800 
376.882 -1702.58 5800 351.667 -1690.12 5800 898.9 -1697.37 5800 
919.567 -1690.1 5800 2112.67 -1690.06 5800 3070.06 -1690.02 5800 
3800.2 -1690 5800 4263.02 -1699.02 5800 4292.02 -1692.96 5800 
4306.26 -1689.98 5800 347.882 -1688.25 5800 325.361 -1677.12 5800 
927.902 -1687.17 5800 956.538 -1677.1 5800 2109.71 -1677.06 5800 
3073.98 -1685.3 5800 3080.84 -1677.02 5800 3799 -1687.78 5800 
3793.37 -1677 5800 4321.02 -1686.9 5800 4350.02 -1680.84 5800 
4368.47 -1676.98 5800 318.882 -1673.92 5800 299.056 -1664.12 5800 
956.904 -1676.97 5800 985.906 -1666.77 5800 993.508 -1664.09 5800 
2106.76 -1664.06 5800 3091.61 -1664.02 5800 3786.95 -1664 5800 
4379.02 -1674.77 5800 4408.02 -1668.34 5800 4414.87 -1663.98 5800 
289.882 -1659.58 5800 272.75 -1651.12 5800 1014.91 -1656.57 5800 
1030.44 -1651.09 5800 2103.81 -1651.05 5800 3102.39 -1651.02 5800 
3780.53 -1651 5800 4430.74 -1650.97 5800 260.882 -1645.25 5800 
246.444 -1638.12 5800 1043.91 -1646.34 5800 1067.24 -1638.09 5800 
2100.86 -1638.05 5800 3102.98 -1650.31 5800 3113.17 -1638.02 5800 
3774.05 -1638 5800 4437.03 -1644.25 5800 4442.71 -1637.97 5800 
231.883 -1630.92 5800 220.139 -1625.12 5800 1072.91 -1636.08 5800 
1101.91 -1625.83 5800 1104.02 -1625.09 5800 2097.91 -1625.05 5800 
3123.94 -1625.02 5800 3770 -1629.88 5800 3767.55 -1625 5800 
4454.36 -1624.97 5800 202.883 -1616.59 5800 194.158 -1612.12 5800 
1130.91 -1615.58 5800 1140.8 -1612.08 5800 2094.96 -1612.05 5800 
3131.98 -1615.32 5800 3134.72 -1612.02 5800 3760.55 -1611.99 5800 
4465.85 -1611.97 5800 173.883 -1601.14 5800 170.442 -1599.12 5800 
1159.92 -1605.33 5800 1177.58 -1599.08 5800 2092 -1599.05 5800 
3145.5 -1599.01 5800 3753.52 -1598.99 5800 4466.03 -1611.76 5800 
4477.33 -1598.97 5800 148.349 -1586.12 5800 1188.92 -1595.07 5800 
1214.36 -1586.08 5800 2089.05 -1586.05 5800 3156.28 -1586.01 5800 
3746.46 -1585.99 5800 4488.82 -1585.97 5800 144.883 -1584.08 5800 
126.257 -1573.12 5800 1217.92 -1584.82 5800 1246.92 -1574.57 5800 
1251.14 -1573.08 5800 2086.96 -1573.05 5800 2087.95 -1581.2 5800 
3160.99 -1580.33 5800 3167.05 -1573.01 5800 3741.01 -1575.95 5800 
3739.4 -1572.99 5800 4495.03 -1578.94 5800 4500.31 -1572.97 5800 
115.883 -1567.01 5800 104.164 -1560.12 5800 1275.92 -1564.32 5800 
1287.92 -1560.08 5800 2087.95 -1568.68 5800 2090.78 -1560.05 5800 
3177.83 -1560.01 5800 3732.35 -1559.99 5800 4511.8 -1559.96 5800 
86.8838 -1549.95 5800 82.0707 -1547.12 5800 1304.93 -1554.06 5800 
1324.7 -1547.07 5800 2094.53 -1547.05 5800 3188.61 -1547.01 5800 
3725.29 -1546.99 5800 4523.29 -1546.96 5800 59.9777 -1534.12 5800 
1333.93 -1543.81 5800 1355.41 -1534.07 5800 2097.25 -1534.05 5800 
3189.99 -1544.64 5800 3195.45 -1534.01 5800 3718.23 -1533.99 5800 
4524.04 -1546.12 5800 4534.78 -1533.96 5800 57.8841 -1532.88 5800 
37.8848 -1521.12 5800 1362.93 -1530.02 5800 1377.29 -1521.07 5800 
2100.95 -1521.04 5800 3200.69 -1521.01 5800 3712.01 -1522.52 5800 
3711.18 -1520.99 5800 4546.27 -1520.96 5800 28.8844 -1515.82 5800 
15.7919 -1508.12 5800 1391.93 -1511.95 5800 1395.32 -1508.07 5800 
2103.75 -1508.04 5800 3205.94 -1508.01 5800 3704.12 -1507.99 5800 
4553.04 -1513.3 5800 4557.76 -1507.96 5800 -0.11528 -1498.76 5800 
-6.30107 -1495.12 5800 1410.3 -1495.07 5800 2104.6 -1495.04 5800 
3211.19 -1495 5800 3697.07 -1494.99 5800 4569.25 -1494.96 5800 
-28.394 -1482.11 5800 1420.93 -1488.56 5800 1427.24 -1482.06 5800 
2105.44 -1482.04 5800 3216.44 -1482 5800 3690.01 -1481.99 5800 
4580.74 -1481.96 5800 -29.115 -1481.69 5800 -50.4869 -1469.11 5800 
1438.73 -1469.06 5800 2106.28 -1469.04 5800 3219 -1475.66 5800 
3220.61 -1469 5800 3683.01 -1469.1 5800 3682.95 -1468.99 5800 
4582.04 -1480.48 5800 4592.23 -1468.95 5800 -58.1147 -1464.66 5800 
-65.744 -1456.11 5800 1449.94 -1458.67 5800 1452.47 -1456.06 5800 
2106.63 -1456.04 5800 3223.03 -1456 5800 3675.9 -1455.99 5800 
4603.72 -1455.95 5800 -72.0385 -1443.11 5800 1465.08 -1443.06 5800 
2105.35 -1443.04 5800 3223.41 -1443 5800 3668.84 -1442.98 5800 
4611.05 -1447.66 5800 4615.21 -1442.95 5800 -78.333 -1430.11 5800 
1477.69 -1430.06 5800 2104.31 -1430.04 5800 3223.8 -1430 5800 
3661.78 -1429.98 5800 4626.7 -1429.95 5800 -84.6276 -1417.11 5800 
1478.94 -1428.77 5800 1490.33 -1417.06 5800 2103.46 -1417.04 5800 
3224.18 -1417 5800 3654.73 -1416.98 5800 4638.19 -1416.95 5800 
-87.1116 -1411.98 5800 -90.9221 -1404.11 5800 1502.99 -1404.06 5800 
2102.75 -1404.04 5800 3224.56 -1404 5800 3654.02 -1415.67 5800 
3647.67 -1403.98 5800 4640.05 -1414.84 5800 4649.67 -1403.95 5800 
-97.2167 -1391.11 5800 1507.94 -1398.98 5800 1515.69 -1391.05 5800 
2102.14 -1391.03 5800 3224.95 -1391 5800 3640.62 -1390.98 5800 
4661.16 -1390.95 5800 -103.511 -1378.11 5800 1528.4 -1378.05 5800 
2101.62 -1378.03 5800 2538.64 -1378.02 5800 2551.98 -1388.72 5800 
2580.98 -1381.8 5800 2600.18 -1378.02 5800 3225.33 -1377.99 5800 
3633.56 -1377.98 5800 4669.05 -1382.02 5800 4672.65 -1377.94 5800 
-109.806 -1365.11 5800 1536.95 -1369.31 5800 1541.11 -1365.05 5800 
2101.17 -1365.03 5800 2523.74 -1365.02 5800 2609.98 -1376.06 5800 
2638.99 -1370.43 5800 2666.85 -1365.01 5800 3225.71 -1364.99 5800 
3626.5 -1364.98 5800 4684.14 -1364.94 5800 -116.1 -1352.11 5800 
1553.82 -1352.05 5800 2100.77 -1352.03 5800 2513.23 -1352.02 5800 
2522.98 -1364.32 5800 2667.99 -1364.79 5800 2696.99 -1359.16 5800 
2725.99 -1353.52 5800 2733.63 -1352.01 5800 3226.09 -1351.99 5800 
[...]
POINT_DATA 15769
SCALARS Pressure double
LOOKUP_TABLE default
3.0942848921 3.0942848921 3.0942848921 3.0942848921 3.0942848921 3.0942848921 3.0942848921 3.0942848921 3.0942848921 
3.0942848921 3.0942848921 3.0942848921 3.0942848921 3.0942848921 3.0942848921 3.0942848921 3.0942848921 3.0942848921 
3.0942848921 3.0942848921 3.0942848921 3.0942848921 3.0942848921 3.0942848921 3.0942848921 3.0942848921 3.0942848921 
3.0942848921 3.0942848921 3.0942848921 3.0942848921 3.0942848921 3.0942848921 3.0942848921 3.0942848921 3.0942848921 
3.0942848921 3.0942848921 3.0942848921 3.0942848921 3.0942848921 3.0942848921 3.0942848921 3.0942848921 3.0942848921 
3.0942848921 3.0942848921 3.0942848921 3.0942848921 3.0942848921 3.0942848921 3.0942848921 3.0942848921 3.0942848921 
3.0942848921 3.0942848921 3.0942848921 3.0942848921 3.0942848921 3.0942848921 3.0942848921 3.0942848921 3.0942848921 
3.0942848921 3.0942848921 3.0942848921 3.0942848921 3.0942848921 3.0942848921 3.0942848921 3.0942848921 3.0942848921 
3.0942848921 3.0942848921 3.0942848921 3.0942848921 3.0942848921 3.0942848921 3.0942848921 3.0942848921 3.0942848921 
3.0942848921 3.0942848921 3.0942848921 3.0942848921 3.0942848921 3.0942848921 3.0942848921 3.0942848921 3.0942848921 
3.0942848921 3.0942848921 3.0942848921 3.0942848921 3.0942848921 3.0942848921 3.0942848921 3.0942848921 3.0942848921 
3.0942848921 3.0942848921 3.0942848921 3.0942848921 3.0942848921 3.0942848921 3.0942848921 3.0942848921 3.0942848921 
3.0942848921 3.0942848921 3.0942848921 3.0942848921 3.0942848921 3.0942848921 3.0942848921 3.0942848921 3.0942848921 
3.0942848921 3.0942848921 3.0942848921 3.0942848921 3.0942848921 3.0883908358 3.0883908358 3.0883908358 3.0942848921 
3.0942848921 3.0883908358 3.0883908358 3.0883908358 3.0883908358 3.0942848921 3.0942848921 3.0883908358 3.0883908358 
3.0883908358 3.0942848921 3.0942848921 3.0883908358 3.0883908358 3.0883908358 3.0883908358 3.0883908358 3.0883908358 
3.0883908358 3.0883908358 3.0883908358 3.0883908358 3.0942848921 3.0942848921 3.0883908358 3.0883908358 3.0883908358 
3.0883908358 3.0883908358 3.0883908358 3.0883908358 3.0942848921 3.0942848921 3.0942848921 3.0883908358 3.0883908358 
3.0883908358 3.0883908358 3.0883908358 3.0883908358 3.0883908358 3.0883908358 3.0942848921 3.0942848921 3.0883908358 
3.0883908358 3.0883908358 3.0883908358 3.0883908358 3.0883908358 3.0883908358 3.0942848921 3.0942848921 3.0883908358 
3.0883908358 3.0883908358 3.0883908358 3.0883908358 3.0883908358 3.0883908358 3.0883908358 3.0883908358 3.0883908358 
3.0883908358 3.0942848921 3.0942848921 3.0942848921 3.0883908358 3.0883908358 3.0883908358 3.0883908358 3.0883908358 
3.0883908358 3.0883908358 3.0942848921 3.0942848921 3.0942848921 3.0883908358 3.0883908358 3.0883908358 3.0883908358 
3.0883908358 3.0883908358 3.0883908358 3.0883908358 3.0942848921 3.0942848921 3.0883908358 3.0883908358 3.0883908358 
3.0883908358 3.0883908358 3.0883908358 3.0883908358 3.0883908358 3.0942848921 3.0942848921 3.0942848921 3.0883908358 
3.0883908358 3.0883908358 3.0883908358 3.0883908358 3.0883908358 3.0883908358 3.0883908358 3.0883908358 3.0883908358 
3.0942848921 3.0942848921 3.0883908358 3.0883908358 3.0883908358 3.0883908358 3.0883908358 3.0883908358 3.0883908358 
3.0883908358 3.0942848921 3.0942848921 3.0883908358 3.0883908358 3.0883908358 3.0883908358 3.0883908358 3.0883908358 
3.0942848921 3.0942848921 3.0942848921 3.0883908358 3.0883908358 3.0883908358 3.0883908358 3.0883908358 3.0883908358 
3.0883908358 3.0883908358 3.0942848921 3.0942848921 3.0883908358 3.0883908358 3.0883908358 3.0883908358 3.0883908358 
3.0883908358 3.0883908358 3.0942848921 3.0942848921 3.0942848921 3.0883908358 3.0883908358 3.0883908358 3.0883908358 
3.0883908358 3.0883908358 3.0942848921 3.0942848921 3.0883908358 3.0883908358 3.0883908358 3.0883908358 3.0883908358 
3.0883908358 3.0942848921 3.0942848921 3.0883908358 3.0883908358 3.0883908358 3.0883908358 3.0883908358 3.0883908358 
3.0883908358 3.0942848921 3.0942848921 3.0942848921 3.0942848921 3.0883908358 3.0883908358 3.0883908358 3.0883908358 
3.0883908358 3.0883908358 3.0883908358 3.0883908358 3.0942848921 3.0942848921 3.0942848921 3.0883908358 3.0883908358 
3.0883908358 3.0883908358 3.0883908358 3.0883908358 3.0942848921 3.0942848921 3.0883908358 3.0883908358 3.0883908358 
3.0883908358 3.0883908358 3.0942848921 3.0942848921 3.0942848921 3.0883908358 3.0883908358 3.0883908358 3.0883908358 
3.0883908358 3.0883908358 3.0883908358 3.0942848921 3.0942848921 3.0883908358 3.0883908358 3.0883908358 3.0883908358 
3.0883908358 3.0883908358 3.0883908358 3.0942848921 3.0942848921 3.0883908358 3.0883908358 3.0883908358 3.0883908358 
3.0883908358 3.0883908358 3.0942848921 3.0942848921 3.0883908358 3.0883908358 3.0883908358 3.0883908358 3.0883908358 
3.0942848921 3.0942848921 3.0883908358 3.0883908358 3.0883908358 3.0883908358 3.0883908358 3.0942848921 3.0942848921 
3.0942848921 3.0883908358 3.0883908358 3.0883908358 3.0883908358 3.0883908358 3.0883908358 3.0883908358 3.0883908358 
3.0942848921 3.0942848921 3.0883908358 3.0883908358 3.0883908358 3.0883908358 3.0942848921 3.0942848921 3.0883908358 
3.0883908358 3.0883908358 3.0883908358 3.0883908358 3.0942848921 3.0942848921 3.0883908358 3.0883908358 3.0883908358 
3.0883908358 3.0883908358 3.0942848921 3.0942848921 3.0883908358 3.0883908358 3.0883908358 3.0883908358 3.0883908358 
3.0942848921 3.0942848921 3.0883908358 3.0883908358 3.0883908358 3.0883908358 3.0883908358 3.0883908358 3.0883908358 
3.0942848921 3.0942848921 3.0883908358 3.0883908358 3.0883908358 3.0883908358 3.0942848921 3.1001789484 3.1001789484 
3.1001789484 3.1001789484 3.0942848921 3.0883908358 3.0883908358 3.0883908358 3.0883908358 3.0883908358 3.0883908358 
3.0942848921 3.1001789484 3.1001789484 3.1001789484 3.1001789484 3.0942848921 3.0883908358 3.0883908358 3.0883908358 
3.0883908358 3.0942848921 3.1001789484 3.1001789484 3.1001789484 3.1001789484 3.1001789484 3.1001789484 3.0942848921 
3.0883908358 3.0883908358 3.0883908358 3.0883908358 3.0883908358 3.0883908358 3.0883908358 3.0942848921 3.1001789484 
3.1001789484 3.1001789484 3.1001789484 3.0942848921 3.0883908358 3.0883908358 3.0883908358 3.0883908358 3.0883908358 
3.0942848921 3.1001789484 3.1001789484 3.1001789484 3.1001789484 3.1001789484 3.0942848921 3.0883908358 3.0883908358 
3.0883908358 3.0883908358 3.0942848921 3.1001789484 3.1001789484 3.0942848921 3.0883908358 3.0883908358 3.0883908358 
3.0883908358 3.0883908358 3.0883908358 3.0942848921 3.1001789484 3.1001789484 3.1001789484 3.0942848921 3.0883908358 
3.0883908358 3.0883908358 3.0883908358 3.0883908358 3.0942848921 3.1001789484 3.1001789484 3.1001789484 3.0942848921 
3.0883908358 3.0883908358 3.0883908358 3.0883908358 3.0883908358 3.0883908358 3.0942848921 3.1001789484 3.1001789484 
3.0942848921 3.0883908358 3.0883908358 3.0883908358 3.0883908358 3.0942848921 3.1001789484 3.1001789484 3.0942848921 
3.0883908358 3.0883908358 3.0883908358 3.0883908358 3.0883908358 3.0942848921 3.1001789484 3.1001789484 3.1001789484 
3.1001789484 3.0942848921 3.0883908358 3.0883908358 3.0883908358 3.0883908358 3.0883908358 3.0942848921 3.1001789484 
3.1001789484 3.0942848921 3.0883908358 3.0883908358 3.0883908358 3.0883908358 3.0883908358 3.0942848921 3.1001789484 
3.1001789484 3.0942848921 3.0883908358 3.0883908358 3.0883908358 3.0883908358 3.0883908358 3.0942848921 3.0942848921 
3.1001789484 3.1001789484 3.1001789484 3.0942848921 3.0883908358 3.0883908358 3.0883908358 3.0883908358 3.0883908358 
3.0942848921 3.1001789484 3.1001789484 3.1001789484 3.0942848921 3.0883908358 3.0883908358 3.0883908358 3.0883908358 
3.0942848921 3.1001789484 3.1001789484 3.0942848921 3.0883908358 3.0883908358 3.0883908358 3.0883908358 3.0883908358 
3.0942848921 3.1001789484 3.1001789484 3.1001789484 3.0942848921 3.0883908358 3.0883908358 3.0883908358 3.0883908358 
3.0883908358 3.0883908358 3.0942848921 3.1001789484 3.1001789484 3.0942848921 3.0883908358 3.0883908358 3.0883908358 
3.0883908358 3.0942848921 3.1001789484 3.1001789484 3.1001789484 3.0942848921 3.0883908358 3.0883908358 3.0883908358 
3.0883908358 3.0883908358 3.0942848921 3.1001789484 3.1001789484 3.1001789484 3.0942848921 3.0883908358 3.0883908358 
3.0883908358 3.0883908358 3.0883908358 3.0883908358 3.0942848921 3.1001789484 3.1001789484 3.0942848921 3.0883908358 
3.0883908358 3.0883908358 3.0883908358 3.0883908358 3.0883908358 3.0883908358 3.0942848921 3.1001789484 3.1001789484 
3.0942848921 3.0883908358 3.0883908358 3.0883908358 3.0883908358 3.0942848921 3.1001789484 3.1001789484 3.1001789484 
3.0942848921 3.0883908358 3.0883908358 3.0883908358 3.0883908358 3.0883908358 3.0883908358 3.0942848921 3.1001789484 
3.1001789484 3.1001789484 3.0942848921 3.0883908358 3.0883908358 3.0883908358 3.0883908358 3.0883908358 3.0942848921 
3.1001789484 3.1001789484 3.0942848921 3.0883908358 3.0883908358 3.0883908358 3.0883908358 3.0883908358 3.0942848921 
3.1001789484 3.1001789484 3.0942848921 3.0883908358 3.0883908358 3.0883908358 3.0883908358 3.0883908358 3.0883908358 
3.0942848921 3.1001789484 3.1001789484 3.0942848921 3.0883908358 3.0883908358 3.0883908358 3.0883908358 3.0883908358 
3.0942848921 3.1001789484 3.1001789484 3.1001789484 3.0942848921 3.0883908358 3.0883908358 3.0883908358 3.0883908358 
3.0883908358 3.0883908358 3.0942848921 3.1001789484 3.1001789484 3.1060730047 3.1060730047 3.1060730047 3.1060730047 
3.1001789484 3.0942848921 3.0883908358 3.0883908358 3.0883908358 3.0883908358 3.0942848921 3.1001789484 3.1060730047 
3.1060730047 3.1060730047 3.1060730047 3.1060730047 3.1060730047 3.1060730047 3.1060730047 3.1001789484 3.0942848921 
3.0883908358 3.0883908358 3.0883908358 3.0883908358 3.0883908358 3.0883908358 3.0883908358 3.0942848921 3.1001789484 
3.1060730047 3.1060730047 3.1001789484 3.0942848921 3.0883908358 3.0883908358 3.0883908358 3.0883908358 3.0942848921 
3.1001789484 3.1060730047 3.1060730047 3.1060730047 3.1001789484 3.0942848921 3.0883908358 3.0883908358 3.0883908358 
3.0883908358 3.0883908358 3.0942848921 3.1001789484 3.1060730047 3.1060730047 3.1060730047 3.1001789484 3.0942848921 
3.0883908358 3.0883908358 3.0883908358 3.0883908358 3.0883908358 3.0883908358 3.0942848921 3.1001789484 3.1060730047 
3.1060730047 3.1060730047 3.1060730047 3.1001789484 3.0942848921 3.0883908358 3.0883908358 3.0883908358 3.0883908358 
3.0883908358 3.0942848921 3.1001789484 3.1001789484 3.1060730047 3.1060730047 3.1001789484 3.0942848921 3.0883908358 
3.0883908358 3.0883908358 3.0883908358 3.0883908358 3.0942848921 3.1001789484 3.1060730047 3.1060730047 3.1060730047 
3.1001789484 3.0942848921 3.0883908358 3.0883908358 3.0883908358 3.0883908358 3.0883908358 3.0883908358 3.0942848921 
3.1001789484 3.1060730047 3.1060730047 3.1060730047 3.1001789484 3.0942848921 3.0883908358 3.0883908358 3.0883908358 
3.0883908358 3.0942848921 3.1001789484 3.1060730047 3.1060730047 3.1060730047 3.1001789484 3.0942848921 3.0883908358 
3.0883908358 3.0883908358 3.0883908358 3.0883908358 3.0942848921 3.1001789484 3.1060730047 3.1060730047 3.1001789484 
3.0942848921 3.0883908358 3.0883908358 3.0883908358 3.0883908358 3.0883908358 3.0883908358 3.0942848921 3.1001789484 
3.1060730047 3.1060730047 3.1060730047 3.1001789484 3.0942848921 3.0883908358 3.0883908358 3.0883908358 3.0883908358 
3.0883908358 3.0942848921 3.1001789484 3.1001789484 3.1060730047 3.1060730047 3.1001789484 3.0942848921 3.0883908358 
3.0883908358 3.0883908358 3.0883908358 3.0942848921 3.0942848921 3.1001789484 3.1060730047 3.1060730047 3.1001789484 
3.0942848921 3.0883908358 3.0883908358 3.0883908358 3.0883908358 3.0883908358 3.0883908358 3.0942848921 3.1001789484 
3.1060730047 3.1060730047 3.1060730047 3.1001789484 3.0942848921 3.0883908358 3.0883908358 3.0883908358 3.0883908358 
3.0942848921 3.1001789484 3.1060730047 3.111967061 3.111967061 3.111967061 3.111967061 3.1060730047 3.1001789484 
3.0942848921 3.0883908358 3.0883908358 3.0883908358 3.0883908358 3.0883908358 3.0942848921 3.1001789484 3.1060730047 
3.1060730047 3.111967061 3.111967061 3.111967061 3.1060730047 3.1001789484 3.0942848921 3.0883908358 3.0883908358 
3.0883908358 3.0883908358 3.0883908358 3.0883908358 3.0942848921 3.1001789484 3.1060730047 3.111967061 3.111967061 
3.111967061 3.111967061 3.1060730047 3.1001789484 3.1001789484 3.0942848921 3.0883908358 3.0883908358 3.0883908358 
3.0883908358 3.0883908358 3.0942848921 3.1001789484 3.1060730047 3.111967061 3.111967061 3.111967061 3.111967061 
3.1060730047 3.1060730047 3.1001789484 3.0942848921 3.0883908358 3.0824967795 3.0824967795 3.0824967795 3.0883908358 
3.0883908358 3.0883908358 3.0942848921 3.1001789484 3.1060730047 3.1060730047 3.111967061 3.111967061 3.111967061 
3.111967061 3.1060730047 3.1001789484 3.0942848921 3.0942848921 3.0883908358 3.0824967795 3.0824967795 3.0824967795 
3.0883908358 3.0883908358 3.0883908358 3.0883908358 3.0883908358 3.0942848921 3.1001789484 3.1060730047 3.111967061 
3.111967061 3.111967061 3.1060730047 3.1060730047 3.1001789484 3.0942848921 3.0883908358 3.0824967795 3.0824967795 
3.0824967795 3.0883908358 3.0883908358 3.0883908358 3.0883908358 3.0942848921 3.1001789484 3.1060730047 3.111967061 
3.111967061 3.111967061 3.1060730047 3.1001789484 3.0942848921 3.0883908358 3.0824967795 3.0824967795 3.0824967795 
3.0883908358 3.0883908358 3.0883908358 3.0883908358 3.0942848921 3.1001789484 3.1060730047 3.1060730047 3.111967061 
3.111967061 3.1060730047 3.1001789484 3.0942848921 3.0883908358 3.0824967795 3.0824967795 3.0824967795 3.0824967795 
3.0824967795 3.0883908358 3.0883908358 3.0883908358 3.0942848921 3.1001789484 3.1060730047 3.111967061 3.111967061 
3.111967061 3.1060730047 3.1001789484 3.0942848921 3.0883908358 3.0824967795 3.0824967795 3.0824967795 3.0883908358 
3.0883908358 3.0883908358 3.0883908358 3.0883908358 3.0942848921 3.1001789484 3.1060730047 3.111967061 3.111967061 
3.111967061 3.1060730047 3.1001789484 3.0942848921 3.0883908358 3.0824967795 3.0824967795 3.0824967795 3.0824967795 
3.0883908358 3.0883908358 3.0883908358 3.0942848921 3.1001789484 3.1060730047 3.111967061 3.111967061 3.111967061 
3.1060730047 3.1001789484 3.0942848921 3.0883908358 3.0883908358 3.0824967795 3.0824967795 3.0824967795 3.0824967795 
3.0883908358 3.0883908358 3.0883908358 3.0883908358 3.0942848921 3.1001789484 3.1060730047 3.111967061 3.1178611173 
3.1178611173 3.1178611173 3.111967061 3.1060730047 3.1060730047 3.1001789484 3.0942848921 3.0883908358 3.0824967795 
3.0824967795 3.0883908358 3.0883908358 3.0883908358 3.0883908358 3.0942848921 3.1001789484 3.1060730047 3.111967061 
3.1178611173 3.1178611173 3.1178611173 3.1178611173 3.1178611173 3.111967061 3.1060730047 3.1001789484 3.0942848921 
3.0883908358 3.0824967795 3.0824967795 3.0883908358 3.0883908358 3.0883908358 3.0824967795 3.0824967795 3.0824967795 
3.0824967795 3.0824967795 3.0824967795 3.0824967795 3.0824967795 3.0824967795 3.0824967795 3.0883908358 3.0942848921 
3.1001789484 3.1001789484 3.1060730047 3.111967061 3.111967061 3.1178611173 3.1178611173 3.1178611173 3.111967061 
3.111967061 3.1060730047 3.1001789484 3.0942848921 3.0883908358 3.0824967795 3.0824967795 3.0824967795 3.0883908358 
3.0883908358 3.0824967795 3.0824967795 3.0824967795 3.0883908358 3.0942848921 3.1001789484 3.1060730047 3.111967061 
3.1178611173 3.1178611173 3.1178611173 3.1178611173 3.111967061 3.1060730047 3.1001789484 3.1001789484 3.0942848921 
3.0883908358 3.0824967795 3.0824967795 3.0824967795 3.0883908358 3.0883908358 3.0824967795 3.0824967795 3.0824967795 
3.0824967795 3.0824967795 3.0883908358 3.0883908358 3.0942848921 3.1001789484 3.1060730047 3.111967061 3.1178611173 
3.1178611173 3.1178611173 3.111967061 3.111967061 3.1060730047 3.1060730047 3.1001789484 3.0942848921 3.0883908358 
3.0824967795 3.0824967795 3.0883908358 3.0883908358 3.0824967795 3.0824967795 3.0824967795 3.0883908358 3.0942848921 
3.1001789484 3.1060730047 3.111967061 3.111967061 3.1178611173 3.1178611173 3.1178611173 3.111967061 3.1060730047 
3.1001789484 3.0942848921 3.0883908358 3.0824967795 3.0824967795 3.0824967795 3.0883908358 3.0883908358 3.0824967795 
3.0824967795 3.0824967795 3.0824967795 3.0824967795 3.0883908358 3.0942848921 3.1001789484 3.1060730047 3.111967061 
3.1178611173 3.1178611173 3.1178611173 3.111967061 3.1060730047 3.1001789484 3.0942848921 3.0883908358 3.0824967795 
3.0824967795 3.0883908358 3.0883908358 3.0824967795 3.0824967795 3.0824967795 3.0883908358 3.0942848921 3.1001789484 
3.1060730047 3.111967061 3.1178611173 3.1178611173 3.1178611173 3.111967061 3.1060730047 3.1001789484 3.0942848921 
3.0883908358 3.0883908358 3.0824967795 3.0824967795 3.0824967795 3.0883908358 3.0883908358 3.0824967795 3.0824967795 
3.0883908358 3.0942848921 3.0942848921 3.1001789484 3.1060730047 3.1060730047 3.111967061 3.1178611173 3.1178611173 
3.1237551735 3.1237551735 3.1237551735 3.1178611173 3.111967061 3.1060730047 3.1001789484 3.0942848921 3.0883908358 
3.0824967795 3.0824967795 3.0883908358 3.0883908358 3.0824967795 3.0824967795 3.0824967795 3.0824967795 3.0883908358 
3.0942848921 3.1001789484 3.1060730047 3.111967061 3.111967061 3.1178611173 3.1237551735 3.1237551735 3.1237551735 
3.1178611173 3.111967061 3.111967061 3.1060730047 3.1001789484 3.0942848921 3.0883908358 3.0824967795 3.0824967795 
3.0883908358 3.0883908358 3.0883908358 3.0824967795 3.0824967795 3.0883908358 3.0942848921 3.1001789484 3.1060730047 
3.111967061 3.1178611173 3.1178611173 3.1237551735 3.1237551735 3.1237551735 3.1237551735 3.1237551735 3.1178611173 
3.1178611173 3.111967061 3.1060730047 3.1060730047 3.1001789484 3.0942848921 3.0883908358 3.0824967795 3.0824967795 
3.0883908358 3.0883908358 3.0824967795 3.0824967795 3.0824967795 3.0824967795 3.0883908358 3.0942848921 3.1001789484 
3.1060730047 3.111967061 3.1178611173 3.1237551735 3.1237551735 3.1237551735 3.1237551735 3.1178611173 3.111967061 
3.1060730047 3.1001789484 3.0942848921 3.0942848921 3.0883908358 3.0824967795 3.0824967795 3.0824967795 3.0883908358 
3.0883908358 3.0883908358 3.0824967795 3.0824967795 3.0883908358 3.0883908358 3.0942848921 3.1001789484 3.1060730047 
3.111967061 3.1178611173 3.1237551735 3.1237551735 3.1178611173 3.1178611173 3.111967061 3.1060730047 3.1001789484 
3.1001789484 3.0942848921 3.0883908358 3.0824967795 3.0824967795 3.0824967795 3.0883908358 3.0883908358 3.0824967795 
3.0824967795 3.0824967795 3.0824967795 3.0883908358 3.0942848921 3.1001789484 3.1060730047 3.111967061 3.1178611173 
3.1178611173 3.1237551735 3.1237551735 3.1237551735 3.1237551735 3.1178611173 3.111967061 3.111967061 3.1060730047 
3.1001789484 3.0942848921 3.0883908358 3.0824967795 3.0824967795 3.0883908358 3.0883908358 3.0824967795 3.0824967795 
3.0883908358 3.0942848921 3.1001789484 3.1060730047 3.1060730047 3.111967061 3.111967061 3.1178611173 3.1237551735 
3.1237551735 3.1178611173 3.111967061 3.1060730047 3.1060730047 3.1001789484 3.0942848921 3.0883908358 3.0824967795 
3.0824967795 3.0824967795 3.0883908358 3.0883908358 3.0883908358 3.0824967795 3.0824967795 3.0824967795 3.0883908358 
3.0942848921 3.1001789484 3.1060730047 3.111967061 3.1178611173 3.1237551735 3.1237551735 3.1237551735 3.1237551735 
3.1178611173 3.1178611173 3.111967061 3.1060730047 3.1001789484 3.0942848921 3.0883908358 3.0824967795 3.0824967795 
3.0883908358 3.0883908358 3.0824967795 3.0824967795 3.0824967795 3.0883908358 3.0942848921 3.1001789484 3.1060730047 
3.111967061 3.1178611173 3.1237551735 3.1296492298 3.1296492298 3.1296492298 3.1296492298 3.1296492298 3.1237551735 
3.1178611173 3.111967061 3.1060730047 3.1001789484 3.0942848921 3.0883908358 3.0883908358 3.0824967795 3.0824967795 
3.0883908358 3.0883908358 3.0824967795 3.0824967795 3.0824967795 3.0883908358 3.0883908358 3.0942848921 3.1001789484 
3.1060730047 3.111967061 3.1178611173 3.1237551735 3.1296492298 3.1296492298 3.1296492298 3.1296492298 3.1296492298 
3.1237551735 3.1237551735 3.1178611173 3.111967061 3.111967061 3.1060730047 3.1001789484 3.0942848921 3.0883908358 