# vtk DataFile Version 4.2
vtk output
ASCII
DATASET POLYDATA
POINTS 18501 float
-629.251 -3978.26 0 -629.527 -3978.25 0 -592.25 -3981.04 0 
-587.321 -3978.25 0 -1110.26 -3962.47 0 -1147.04 -3961.26 0 
-1073.26 -3963.69 0 -1036.26 -3964.9 0 -999.26 -3966.11 0 
-962.259 -3967.33 0 -925.258 -3968.54 0 -888.258 -3969.76 0 
-851.257 -3970.97 0 -814.256 -3972.19 0 -777.255 -3973.4 0 
-740.254 -3974.62 0 -703.253 -3975.83 0 -666.252 -3977.05 0 
-555.248 -3961.45 0 -554.998 -3961.25 0 -1554.27 -3947.9 0 
-1569.01 -3944.27 0 -1517.27 -3949.11 0 -1480.27 -3950.33 0 
-1443.27 -3951.54 0 -1406.27 -3952.75 0 -1369.27 -3953.97 0 
-1332.27 -3955.18 0 -1295.27 -3956.4 0 -1258.27 -3957.61 0 
-1221.27 -3958.83 0 -1184.26 -3960.04 0 -1147.26 -3961.26 0 
-536.358 -3944.25 0 -1591.27 -3936.45 0 -1598.12 -3927.27 0 
-522.058 -3927.25 0 -1610.8 -3910.27 0 -518.245 -3923.32 0 
-502.111 -3910.24 0 -1623.48 -3893.27 0 -486.352 -3893.24 0 
-1628.27 -3886.85 0 -1636.17 -3876.27 0 -481.242 -3887.29 0 
-468.642 -3876.24 0 -1648.85 -3859.27 0 -450.456 -3859.24 0 
-1661.53 -3842.27 0 -444.239 -3851.87 0 -433.935 -3842.24 0 
-1665.27 -3837.26 0 -1674.21 -3825.27 0 -414.857 -3825.24 0 
-1686.9 -3808.27 0 -407.236 -3817.28 0 -397.566 -3808.23 0 
-1699.58 -3791.27 0 -379.381 -3791.23 0 -1702.27 -3787.67 0 
-1712.26 -3774.27 0 -370.232 -3782.68 0 -361.197 -3774.23 0 
-1724.95 -3757.27 0 -343.012 -3757.23 0 -1737.63 -3740.27 0 
-333.229 -3748.08 0 -324.828 -3740.23 0 -1739.27 -3738.07 0 
-1750.31 -3723.27 0 -306.643 -3723.23 0 -1762.99 -3706.27 0 
-296.226 -3713.49 0 -288.458 -3706.23 0 -1775.68 -3689.26 0 
-270.274 -3689.22 0 -1776.27 -3688.48 0 -1788.36 -3672.26 0 
-259.223 -3678.89 0 -252.089 -3672.22 0 -1801.04 -3655.26 0 
-233.904 -3655.22 0 -1813.26 -3638.88 0 -1813.73 -3638.26 0 
-222.22 -3644.3 0 -215.72 -3638.22 0 -1826.41 -3621.26 0 
-197.535 -3621.22 0 -1839.09 -3604.26 0 -185.217 -3609.7 0 
-179.351 -3604.22 0 -1850.26 -3589.29 0 -1851.77 -3587.26 0 
-161.166 -3587.22 0 -1864.46 -3570.26 0 -148.214 -3575.11 0 
-142.981 -3570.21 0 -1877.14 -3553.26 0 -124.796 -3553.21 0 
-1887.26 -3539.69 0 -1889.82 -3536.26 0 -111.211 -3540.51 0 
-106.612 -3536.21 0 -1902.51 -3519.26 0 -88.4273 -3519.21 0 
-1915.19 -3502.26 0 -74.2082 -3505.92 0 -70.2427 -3502.21 0 
-1924.26 -3490.1 0 -1927.87 -3485.26 0 -52.0581 -3485.21 0 
-1940.55 -3468.26 0 -37.2052 -3471.32 0 -33.8735 -3468.21 0 
-1953.24 -3451.26 0 -15.6888 -3451.2 0 -1961.26 -3440.51 0 
-1965.92 -3434.26 0 -0.202148 -3436.72 0 2.49594 -3434.2 0 
-1978.6 -3417.25 0 20.6805 -3417.2 0 -1991.28 -3400.25 0 
36.8009 -3402.13 0 38.8651 -3400.2 0 -1998.25 -3390.91 0 
-2003.97 -3383.25 0 57.0497 -3383.2 0 -2015.61 -3366.25 0 
73.8039 -3367.53 0 75.2343 -3366.2 0 -2022.86 -3349.25 0 
93.4189 -3349.19 0 -2029.41 -3332.25 0 110.807 -3332.94 0 
111.604 -3332.19 0 -2035.25 -3317.09 0 -2035.96 -3315.25 0 
129.788 -3315.19 0 -2042.51 -3298.25 0 147.81 -3298.34 0 
147.973 -3298.19 0 -2049.06 -3281.25 0 166.158 -3281.19 0 
-2055.61 -3264.25 0 184.342 -3264.19 0 -2062.16 -3247.25 0 
184.813 -3263.75 0 192.033 -3247.19 0 -2068.71 -3230.25 0 
196.958 -3230.18 0 -2072.25 -3221.06 0 -2075.26 -3213.25 0 
200.453 -3213.18 0 -2081.8 -3196.24 0 203.061 -3196.18 0 
-2088.35 -3179.24 0 205.083 -3179.18 0 -2094.9 -3162.24 0 
205.557 -3162.18 0 -2101.45 -3145.24 0 205.47 -3145.18 0 
-2108 -3128.24 0 205.383 -3128.18 0 -2109.24 -3125.03 0 
-2114.55 -3111.24 0 205.296 -3111.18 0 -2121.1 -3094.24 0 
205.21 -3094.18 0 -2127.65 -3077.24 0 205.123 -3077.18 0 
3440.91 -3093.63 0 3430.68 -3077.09 0 3477.91 -3085.49 0 
3512.71 -3077.09 0 -2134.2 -3060.24 0 206.085 -3060.17 0 
3417.22 -3060.09 0 3514.91 -3076.55 0 3551.92 -3067.62 0 
3583.16 -3060.08 0 -2140.75 -3043.24 0 208.689 -3043.17 0 
3403.91 -3047.5 0 3400.38 -3043.09 0 3588.92 -3058.69 0 
3625.92 -3049.76 0 3653.6 -3043.08 0 -2146.24 -3029 0 
-2147.3 -3026.24 0 211.293 -3026.17 0 3386.79 -3026.09 0 
3662.92 -3040.83 0 3699.92 -3031.9 0 3724.05 -3026.08 0 
-2153.85 -3009.24 0 213.876 -3009.17 0 3373.19 -3009.09 0 
3736.92 -3022.97 0 3773.92 -3014.04 0 3794.49 -3009.07 0 
-2160.4 -2992.23 0 216.889 -2992.17 0 3366.91 -3001.23 0 
3359.6 -2992.09 0 3810.93 -3005.11 0 3847.93 -2996.18 0 
3864.94 -2992.07 0 -2166.95 -2975.23 0 219.481 -2975.17 0 
3346 -2975.08 0 3884.93 -2987.25 0 3921.93 -2978.32 0 
3935.38 -2975.07 0 -2173.5 -2958.23 0 221.733 -2958.17 0 
3332.41 -2958.08 0 3958.93 -2969.39 0 3995.93 -2960.45 0 
4005.83 -2958.07 0 -2180.05 -2941.23 0 221.832 -2957.37 0 
224.314 -2941.17 0 3329.92 -2954.96 0 3318.82 -2941.08 0 
4032.94 -2951.52 0 4069.94 -2942.59 0 4076.28 -2941.06 0 
4439.95 -2949.99 0 4403.7 -2941.05 0 4452.72 -2941.05 0 
-2183.23 -2932.97 0 -2186.6 -2924.23 0 226.776 -2924.17 0 
1626.53 -2924.13 0 1627.87 -2926.15 0 1632.12 -2924.13 0 
3305.22 -2924.08 0 4106.94 -2933.66 0 4143.94 -2924.73 0 
4146.72 -2924.06 0 4365.95 -2931.25 0 4338.28 -2924.05 0 
4402.95 -2940.88 0 4465.11 -2924.05 0 -2193.15 -2907.23 0 
231.612 -2907.16 0 1604.5 -2907.13 0 1664.87 -2917.25 0 
1701.87 -2912.9 0 1738.88 -2908.55 0 1751.01 -2907.12 0 
3292.92 -2908.7 0 3291.63 -2907.08 0 4180.94 -2915.8 0 
4217.17 -2907.06 0 4291.94 -2912 0 4272.94 -2907.06 0 
4328.94 -2921.63 0 4476.95 -2907.81 0 4477.5 -2907.05 0 
-2199.7 -2890.23 0 235.771 -2890.16 0 1560.32 -2890.13 0 
1590.87 -2901.88 0 1775.88 -2904.2 0 1812.88 -2899.85 0 
1849.88 -2895.5 0 1886.88 -2891.15 0 1895.63 -2890.12 0 
3278.03 -2890.08 0 4217.94 -2906.87 0 4254.94 -2902.37 0 
4489.89 -2890.05 0 -2206.25 -2873.23 0 239.384 -2873.16 0 
1516.14 -2873.13 0 1516.87 -2873.41 0 1553.87 -2887.65 0 
1923.88 -2886.8 0 1960.88 -2882.45 0 1997.88 -2878.09 0 
2034.89 -2873.74 0 2040.24 -2873.11 0 3264.44 -2873.08 0 
4502.28 -2873.05 0 -2212.8 -2856.23 0 242.553 -2856.16 0 
1471.96 -2856.13 0 1479.87 -2859.17 0 2071.89 -2869.39 0 
2108.89 -2865.04 0 2145.89 -2860.69 0 2182.89 -2856.34 0 
2184.86 -2856.11 0 3255.92 -2862.43 0 3250.84 -2856.08 0 
4513.95 -2857.03 0 4514.67 -2856.05 0 -2219.34 -2839.23 0 
245.252 -2839.16 0 1427.78 -2839.13 0 1442.87 -2844.94 0 
2219.89 -2851.99 0 2228.17 -2839.11 0 3237.25 -2839.08 0 
4527.06 -2839.04 0 -2220.23 -2836.94 0 -2225.89 -2822.23 0 
249.237 -2822.16 0 1383.6 -2822.13 0 1405.87 -2830.7 0 
2231.63 -2822.11 0 3223.66 -2822.08 0 4539.45 -2822.04 0 
-2232.44 -2805.23 0 253.222 -2805.16 0 1339.42 -2805.13 0 
1368.87 -2816.46 0 2235.42 -2805.1 0 3218.92 -2816.16 0 
3210.06 -2805.08 0 4550.96 -2806.26 0 4551.84 -2805.04 0 
-2238.99 -2788.22 0 257.207 -2788.16 0 1295.24 -2788.13 0 
1331.87 -2802.22 0 2239.21 -2788.1 0 3196.47 -2788.08 0 
4564.23 -2788.04 0 -2245.54 -2771.22 0 258.843 -2781.17 0 
261.35 -2771.16 0 1251.06 -2771.13 0 1257.87 -2773.75 0 
1294.87 -2787.99 0 2243.01 -2771.1 0 3182.87 -2771.08 0 
4576.62 -2771.04 0 -2252.09 -2754.22 0 265.211 -2754.15 0 
1206.88 -2754.13 0 1220.87 -2759.51 0 2246.8 -2754.1 0 
3181.92 -2769.89 0 3169.28 -2754.08 0 4587.96 -2755.48 0 
4589.01 -2754.04 0 -2257.22 -2740.91 0 -2258.64 -2737.22 0 
269.161 -2737.15 0 1162.7 -2737.13 0 1183.87 -2745.28 0 
2250.59 -2737.1 0 3155.68 -2737.08 0 4601.4 -2737.04 0 
-2265.19 -2720.22 0 273.145 -2720.15 0 1118.52 -2720.13 0 
1146.87 -2731.04 0 2254.38 -2720.1 0 3144.92 -2723.62 0 
3143.06 -2720.07 0 4613.79 -2720.04 0 -2271.74 -2703.22 0 
277.13 -2703.15 0 1084.56 -2703.13 0 1109.87 -2716.8 0 
2256.9 -2708.8 0 2258.17 -2703.1 0 3142.75 -2703.07 0 
4624.97 -2704.7 0 4626.18 -2703.03 0 -2278.37 -2686.22 0 
281.115 -2686.15 0 1060.42 -2686.13 0 1072.87 -2695.54 0 
2261.96 -2686.1 0 3144.93 -2693.29 0 3146.54 -2686.07 0 
4643.05 -2686.03 0 -2285.2 -2669.22 0 285.1 -2669.15 0 
1037.92 -2669.13 0 2265.76 -2669.1 0 3150.33 -2669.07 0 
4661.97 -2673.67 0 4668.64 -2669.03 0 -2292.15 -2652.22 0 
289.084 -2652.15 0 1015.43 -2652.13 0 1035.87 -2667.58 0 
2269.55 -2652.09 0 3154.12 -2652.07 0 4695.32 -2652.03 0 
-2294.22 -2647.22 0 -2299.23 -2635.22 0 293.069 -2635.15 0 
992.935 -2635.13 0 998.872 -2639.62 0 2273.34 -2635.09 0 
3157.92 -2635.07 0 4698.97 -2649.7 0 4722.01 -2635.03 0 
-2306.33 -2618.22 0 295.854 -2623.27 0 297.054 -2618.15 0 
970.441 -2618.13 0 2277.13 -2618.09 0 3161.71 -2618.07 0 
4735.97 -2626.13 0 4748.69 -2618.03 0 -2313.43 -2601.22 0 
301.039 -2601.14 0 957.175 -2601.13 0 961.872 -2611.65 0 
2280.92 -2601.09 0 3165.5 -2601.07 0 4772.98 -2602.55 0 
4775.37 -2601.02 0 -2320.53 -2584.21 0 305.023 -2584.14 0 
949.731 -2584.13 0 2284.71 -2584.09 0 3169.29 -2584.07 0 
4802.06 -2584.02 0 -2327.62 -2567.21 0 309.008 -2567.14 0 
942.461 -2567.13 0 2288.51 -2567.09 0 3173.09 -2567.07 0 
4809.98 -2578.98 0 4828.74 -2567.02 0 -2331.21 -2558.62 0 
-2334.72 -2550.21 0 312.993 -2550.14 0 935.358 -2550.12 0 
2292.3 -2550.09 0 3176.88 -2550.06 0 4846.98 -2555.4 0 
4855.43 -2550.02 0 -2341.82 -2533.21 0 316.978 -2533.14 0 
928.416 -2533.12 0 2293.91 -2542.85 0 2296.09 -2533.09 0 
3180.67 -2533.06 0 4882.11 -2533.02 0 -2348.92 -2516.21 0 
320.962 -2516.14 0 921.786 -2516.12 0 924.877 -2524.3 0 
2299.88 -2516.09 0 3178.55 -2516.06 0 4883.98 -2531.82 0 
4908.79 -2516.02 0 -2356.02 -2499.21 0 324.947 -2499.14 0 
915.364 -2499.12 0 2303.67 -2499.08 0 3173.21 -2499.06 0 
4920.99 -2508.25 0 4935.48 -2499.01 0 -2363.12 -2482.21 0 
328.932 -2482.14 0 908.941 -2482.12 0 2307.46 -2482.08 0 
3167.3 -2482.06 0 4957.99 -2484.67 0 4962.16 -2482.01 0 
-2368.21 -2470.02 0 -2370.22 -2465.21 0 332.864 -2465.36 0 
332.916 -2465.14 0 902.519 -2465.12 0 2311.26 -2465.08 0 
3161.39 -2465.06 0 4988.85 -2465.01 0 -2377.31 -2448.21 0 
336.901 -2448.14 0 896.096 -2448.12 0 2315.05 -2448.08 0 
3155.48 -2448.06 0 4994.99 -2461.09 0 5015.53 -2448.01 0 
-2384.41 -2431.21 0 340.886 -2431.13 0 889.674 -2431.12 0 
2318.84 -2431.08 0 3149.57 -2431.06 0 5031.99 -2437.52 0 
5042.21 -2431.01 0 -2391.51 -2414.21 0 344.871 -2414.13 0 
883.252 -2414.12 0 887.881 -2426.37 0 2322.63 -2414.08 0 
3144.94 -2417.76 0 3143.65 -2414.06 0 5068.9 -2414 0 
-2398.61 -2397.21 0 348.855 -2397.13 0 876.829 -2397.12 0 
2326.42 -2397.08 0 3137.74 -2397.06 0 5069 -2413.94 0 
[...]
POINT_DATA 18501
SCALARS Pressure double
LOOKUP_TABLE default
3.0883908358 3.0883908358 3.0883908358 3.0883908358 3.0883908358 3.0883908358 3.0883908358 3.0883908358 3.0883908358 
3.0883908358 3.0883908358 3.0883908358 3.0883908358 3.0883908358 3.0883908358 3.0883908358 3.0883908358 3.0883908358 
3.0883908358 3.0883908358 3.0883908358 3.0883908358 3.0883908358 3.0883908358 3.0883908358 3.0883908358 3.0883908358 
3.0883908358 3.0883908358 3.0883908358 3.0883908358 3.0883908358 3.0883908358 3.0883908358 3.0883908358 3.0883908358 
3.0883908358 3.0883908358 3.0883908358 3.0883908358 3.0883908358 3.0883908358 3.0883908358 3.0883908358 3.0883908358 
3.0883908358 3.0883908358 3.0883908358 3.0883908358 3.0883908358 3.0883908358 3.0883908358 3.0883908358 3.0883908358 
3.0883908358 3.0883908358 3.0883908358 3.0883908358 3.0883908358 3.0883908358 3.0883908358 3.0883908358 3.0883908358 
3.0883908358 3.0883908358 3.0883908358 3.0883908358 3.0883908358 3.0883908358 3.0883908358 3.0883908358 3.0883908358 
3.0883908358 3.0883908358 3.0883908358 3.0883908358 3.0883908358 3.0883908358 3.0883908358 3.0883908358 3.0883908358 
3.0883908358 3.0883908358 3.0883908358 3.0883908358 3.0883908358 3.0883908358 3.0883908358 3.0883908358 3.0883908358 
3.0883908358 3.0883908358 3.0883908358 3.0883908358 3.0883908358 3.0883908358 3.0883908358 3.0883908358 3.0883908358 
3.0883908358 3.0883908358 3.0883908358 3.0883908358 3.0883908358 3.0883908358 3.0883908358 3.0883908358 3.0883908358 
3.0883908358 3.0883908358 3.0883908358 3.0883908358 3.0883908358 3.0883908358 3.0883908358 3.0883908358 3.0883908358 
3.0883908358 3.0883908358 3.0883908358 3.0883908358 3.0883908358 3.0883908358 3.0883908358 3.0883908358 3.0883908358 
3.0883908358 3.0883908358 3.0883908358 3.0883908358 3.0883908358 3.0883908358 3.0883908358 3.0883908358 3.0883908358 
3.0883908358 3.0883908358 3.0883908358 3.0883908358 3.0883908358 3.0883908358 3.0883908358 3.0883908358 3.0883908358 
3.0883908358 3.0883908358 3.0883908358 3.0883908358 3.0883908358 3.0883908358 3.0883908358 3.0883908358 3.0883908358 
3.0883908358 3.0883908358 3.0883908358 3.0883908358 3.0883908358 3.0883908358 3.0883908358 3.0883908358 3.0883908358 
3.0883908358 3.0883908358 3.0883908358 3.0883908358 3.0883908358 3.0883908358 3.0883908358 3.0883908358 3.0883908358 
3.0883908358 3.0883908358 3.0883908358 3.0883908358 3.0883908358 3.0883908358 3.0883908358 3.0883908358 3.0883908358 
3.0883908358 3.0883908358 3.0883908358 3.0883908358 3.0883908358 3.0883908358 3.0883908358 3.0883908358 3.0883908358 
3.0883908358 3.0883908358 3.0883908358 3.0883908358 3.0883908358 3.0883908358 3.0883908358 3.0883908358 3.0883908358 
3.0883908358 3.0883908358 3.0883908358 3.0883908358 3.0883908358 3.0883908358 3.0883908358 3.0883908358 3.0883908358 
3.0883908358 3.0883908358 3.0883908358 3.0883908358 3.0883908358 3.0883908358 3.0883908358 3.0883908358 3.0883908358 
3.0883908358 3.0883908358 3.0883908358 3.0883908358 3.0883908358 3.0883908358 3.0883908358 3.0883908358 3.0883908358 
3.0883908358 3.0883908358 3.0883908358 3.0883908358 3.0883908358 3.0883908358 3.0883908358 3.0883908358 3.0883908358 
3.0942848921 3.0942848921 3.0942848921 3.0883908358 3.0883908358 3.0883908358 3.0883908358 3.0883908358 3.0883908358 
3.0883908358 3.0883908358 3.0883908358 3.0883908358 3.0942848921 3.0942848921 3.0942848921 3.0942848921 3.0942848921 
3.0883908358 3.0883908358 3.0883908358 3.0883908358 3.0883908358 3.0883908358 3.0883908358 3.0883908358 3.0883908358 
3.0883908358 3.0883908358 3.0942848921 3.0942848921 3.0942848921 3.0942848921 3.0942848921 3.0942848921 3.0942848921 
3.0883908358 3.0883908358 3.0883908358 3.0883908358 3.0883908358 3.0883908358 3.0942848921 3.0942848921 3.0942848921 
3.0942848921 3.0942848921 3.0942848921 3.0942848921 3.0942848921 3.0883908358 3.0883908358 3.0883908358 3.0883908358 
3.0942848921 3.0942848921 3.0942848921 3.0942848921 3.0942848921 3.0942848921 3.0942848921 3.0883908358 3.0883908358 
3.0883908358 3.0883908358 3.0883908358 3.0883908358 3.0942848921 3.0942848921 3.0942848921 3.0942848921 3.0883908358 
3.0883908358 3.0883908358 3.0883908358 3.0883908358 3.0942848921 3.0942848921 3.0942848921 3.0883908358 3.0883908358 
3.0883908358 3.0883908358 3.0942848921 3.0942848921 3.0942848921 3.0883908358 3.0883908358 3.0883908358 3.0883908358 
3.0883908358 3.0883908358 3.0942848921 3.0942848921 3.0942848921 3.0883908358 3.0883908358 3.0883908358 3.0883908358 
3.0883908358 3.0942848921 3.0942848921 3.0942848921 3.0942848921 3.0883908358 3.0883908358 3.0883908358 3.0883908358 
3.0942848921 3.0942848921 3.0942848921 3.0883908358 3.0883908358 3.0883908358 3.0883908358 3.0883908358 3.0883908358 
3.0883908358 3.0942848921 3.0942848921 3.0942848921 3.0883908358 3.0883908358 3.0883908358 3.0883908358 3.0942848921 
3.0942848921 3.0942848921 3.0883908358 3.0883908358 3.0883908358 3.0883908358 3.0883908358 3.0942848921 3.0942848921 
3.0942848921 3.0942848921 3.0883908358 3.0883908358 3.0883908358 3.0883908358 3.0883908358 3.0942848921 3.0942848921 
3.0942848921 3.0883908358 3.0883908358 3.0883908358 3.0883908358 3.0883908358 3.0942848921 3.0942848921 3.0883908358 
3.0883908358 3.0883908358 3.0883908358 3.0883908358 3.0942848921 3.0942848921 3.0942848921 3.0883908358 3.0883908358 
3.0883908358 3.0883908358 3.0883908358 3.0942848921 3.0942848921 3.0942848921 3.0883908358 3.0883908358 3.0883908358 
3.0883908358 3.0883908358 3.0883908358 3.0942848921 3.0942848921 3.0883908358 3.0883908358 3.0883908358 3.0883908358 
3.0883908358 3.0942848921 3.0942848921 3.0942848921 3.0883908358 3.0883908358 3.0883908358 3.0883908358 3.0883908358 
3.0942848921 3.0942848921 3.0883908358 3.0883908358 3.0883908358 3.0883908358 3.0942848921 3.0942848921 3.0883908358 
3.0883908358 3.0883908358 3.0883908358 3.0883908358 3.0883908358 3.0942848921 3.0942848921 3.0883908358 3.0883908358 
3.0883908358 3.0883908358 3.0883908358 3.0942848921 3.0942848921 3.0942848921 3.0883908358 3.0883908358 3.0883908358 
3.0883908358 3.0942848921 3.0942848921 3.0942848921 3.0883908358 3.0883908358 3.0883908358 3.0883908358 3.0883908358 
3.0942848921 3.0942848921 3.0883908358 3.0883908358 3.0883908358 3.0883908358 3.0883908358 3.0942848921 3.0942848921 
3.0883908358 3.0883908358 3.0883908358 3.0883908358 3.0883908358 3.0883908358 3.0883908358 3.0942848921 3.0942848921 
3.0883908358 3.0883908358 3.0883908358 3.0883908358 3.0942848921 3.0942848921 3.0883908358 3.0883908358 3.0883908358 
3.0883908358 3.0883908358 3.0942848921 3.0942848921 3.0883908358 3.0883908358 3.0883908358 3.0883908358 3.0883908358 
3.0942848921 3.0942848921 3.0942848921 3.0883908358 3.0883908358 3.0883908358 3.0883908358 3.0883908358 3.0942848921 
3.0942848921 3.0883908358 3.0883908358 3.0883908358 3.0883908358 3.0883908358 3.0883908358 3.0942848921 3.0942848921 
3.0883908358 3.0883908358 3.0883908358 3.0883908358 3.0883908358 3.0942848921 3.0942848921 3.0942848921 3.0883908358 
3.0883908358 3.0883908358 3.0883908358 3.0883908358 3.0942848921 3.0942848921 3.0883908358 3.0883908358 3.0883908358 
3.0883908358 3.0942848921 3.0942848921 3.0883908358 3.0883908358 3.0883908358 3.0883908358 3.0883908358 3.0942848921 
3.0942848921 3.0942848921 3.0883908358 3.0883908358 3.0883908358 3.0883908358 3.0883908358 3.0883908358 3.0942848921 
3.0942848921 3.0883908358 3.0883908358 3.0883908358 3.0883908358 3.0883908358 3.0883908358 3.0883908358 3.0942848921 
3.0942848921 3.0883908358 3.0883908358 3.0883908358 3.0883908358 3.0942848921 3.0942848921 3.0883908358 3.0883908358 
3.0883908358 3.0883908358 3.0883908358 3.0942848921 3.0942848921 3.0883908358 3.0883908358 3.0883908358 3.0883908358 
3.0883908358 3.0942848921 3.0942848921 3.0942848921 3.0942848921 3.0883908358 3.0883908358 3.0883908358 3.0883908358 
3.0942848921 3.0942848921 3.0883908358 3.0883908358 3.0883908358 3.0883908358 3.0883908358 3.0883908358 3.0942848921 
3.0942848921 3.0883908358 3.0883908358 3.0883908358 3.0883908358 3.0883908358 3.0883908358 3.0883908358 3.0942848921 
3.0942848921 3.0942848921 3.0883908358 3.0883908358 3.0883908358 3.0883908358 3.0942848921 3.0942848921 3.0883908358 
3.0883908358 3.0883908358 3.0883908358 3.0942848921 3.0942848921 3.0883908358 3.0883908358 3.0883908358 3.0883908358 
3.0883908358 3.0942848921 3.0942848921 3.0942848921 3.0883908358 3.0883908358 3.0883908358 3.0883908358 3.0942848921 
3.0942848921 3.1001789484 3.1001789484 3.1001789484 3.1001789484 3.1001789484 3.1001789484 3.1001789484 3.0942848921 
3.0883908358 3.0883908358 3.0883908358 3.0883908358 3.0942848921 3.1001789484 3.1001789484 3.1001789484 3.1001789484 
3.1001789484 3.1001789484 3.1001789484 3.0942848921 3.0883908358 3.0883908358 3.0883908358 3.0883908358 3.0883908358 
3.0883908358 3.0883908358 3.0942848921 3.1001789484 3.1001789484 3.1001789484 3.1001789484 3.1001789484 3.1001789484 
3.0942848921 3.0942848921 3.0883908358 3.0883908358 3.0883908358 3.0824967795 3.0824967795 3.0824967795 3.0883908358 
3.0942848921 3.1001789484 3.1001789484 3.1001789484 3.1001789484 3.0942848921 3.0883908358 3.0883908358 3.0883908358 
3.0824967795 3.0824967795 3.0824967795 3.0824967795 3.0824967795 3.0824967795 3.0883908358 3.0942848921 3.1001789484 
3.1001789484 3.1001789484 3.0942848921 3.0883908358 3.0883908358 3.0883908358 3.0883908358 3.0824967795 3.0824967795 
3.0824967795 3.0824967795 3.0824967795 3.0824967795 3.0883908358 3.0942848921 3.1001789484 3.1001789484 3.1001789484 
3.1001789484 3.0942848921 3.0883908358 3.0883908358 3.0883908358 3.0824967795 3.0824967795 3.0824967795 3.0824967795 
3.0824967795 3.0824967795 3.0824967795 3.0883908358 3.0942848921 3.1001789484 3.1001789484 3.0942848921 3.0883908358 
3.0883908358 3.0883908358 3.0824967795 3.0824967795 3.0824967795 3.0824967795 3.0883908358 3.0942848921 3.1001789484 
3.1001789484 3.1001789484 3.1001789484 3.0942848921 3.0883908358 3.0883908358 3.0883908358 3.0883908358 3.0883908358 
3.0883908358 3.0824967795 3.0824967795 3.0824967795 3.0824967795 3.0824967795 3.0883908358 3.0942848921 3.1001789484 
3.1001789484 3.1001789484 3.0942848921 3.0883908358 3.0883908358 3.0883908358 3.0824967795 3.0824967795 3.0824967795 
3.0883908358 3.0942848921 3.1001789484 3.1001789484 3.1001789484 3.0942848921 3.0883908358 3.0883908358 3.0883908358 
3.0883908358 3.0824967795 3.0824967795 3.0824967795 3.0824967795 3.0883908358 3.0942848921 3.1001789484 3.1001789484 
3.1001789484 3.0942848921 3.0883908358 3.0883908358 3.0883908358 3.0824967795 3.0824967795 3.0824967795 3.0883908358 
3.0942848921 3.1001789484 3.1001789484 3.1001789484 3.0942848921 3.0883908358 3.0883908358 3.0883908358 3.0824967795 
3.0824967795 3.0883908358 3.0942848921 3.1001789484 3.1001789484 3.0942848921 3.0883908358 3.0883908358 3.0883908358 
3.0883908358 3.0824967795 3.0824967795 3.0824967795 3.0883908358 3.0942848921 3.1001789484 3.1001789484 3.0942848921 
3.0883908358 3.0883908358 3.0883908358 3.0883908358 3.0824967795 3.0824967795 3.0824967795 3.0883908358 3.0942848921 
3.1001789484 3.1001789484 3.1001789484 3.1001789484 3.0942848921 3.0883908358 3.0883908358 3.0883908358 3.0824967795 
3.0824967795 3.0883908358 3.0942848921 3.1001789484 3.1001789484 3.0942848921 3.0883908358 3.0883908358 3.0883908358 
3.0883908358 3.0824967795 3.0824967795 3.0824967795 3.0883908358 3.0942848921 3.0942848921 3.1001789484 3.1001789484 
3.0942848921 3.0883908358 3.0883908358 3.0883908358 3.0824967795 3.0824967795 3.0883908358 3.0942848921 3.1001789484 
3.1001789484 3.0942848921 3.0883908358 3.0883908358 3.0883908358 3.0883908358 3.0824967795 3.0824967795 3.0824967795 
3.0824967795 3.0883908358 3.0942848921 3.1001789484 3.1001789484 3.1001789484 3.1001789484 3.0942848921 3.0883908358 
3.0883908358 3.0883908358 3.0883908358 3.0824967795 3.0824967795 3.0883908358 3.0942848921 3.1001789484 3.1001789484 
3.0942848921 3.0883908358 3.0883908358 3.0883908358 3.0883908358 3.0824967795 3.0824967795 3.0883908358 3.0942848921 
3.1001789484 3.1001789484 3.0942848921 3.0883908358 3.0883908358 3.0883908358 3.0883908358 3.0824967795 3.0824967795 
3.0824967795 3.0824967795 3.0883908358 3.0942848921 3.1001789484 3.1001789484 3.0942848921 3.0883908358 3.0883908358 
3.0883908358 3.0824967795 3.0824967795 3.0883908358 3.0942848921 3.1001789484 3.1001789484 3.1001789484 3.0942848921 
3.0883908358 3.0883908358 3.0883908358 3.0883908358 3.0824967795 3.0824967795 3.0824967795 3.0883908358 3.0942848921 
3.1001789484 3.1001789484 3.1001789484 3.0942848921 3.0883908358 3.0883908358 3.0883908358 3.0883908358 3.0824967795 
3.0824967795 3.0883908358 3.0942848921 3.1001789484 3.1001789484 3.0942848921 3.0942848921 3.0883908358 3.0883908358 
3.0883908358 3.0824967795 3.0824967795 3.0824967795 3.0883908358 3.0942848921 3.1001789484 3.1001789484 3.0942848921 
3.0883908358 3.0883908358 3.0883908358 3.0883908358 3.0883908358 3.0824967795 3.0824967795 3.0824967795 3.0883908358 
3.0942848921 3.0942848921 3.1001789484 3.1001789484 3.0942848921 3.0883908358 3.0883908358 3.0883908358 3.0883908358 
3.0824967795 3.0824967795 3.0883908358 3.0942848921 3.1001789484 3.1060730047 3.1060730047 3.1060730047 3.1060730047 
3.1060730047 3.1060730047 3.1060730047 3.1060730047 3.1060730047 3.1060730047 3.1060730047 3.1060730047 3.1001789484 
3.1001789484 3.0942848921 3.0883908358 3.0883908358 3.0883908358 3.0824967795 3.0824967795 3.0824967795 3.0824967795 
3.0883908358 3.0942848921 3.1001789484 3.1060730047 3.1060730047 3.1060730047 3.1001789484 3.0942848921 3.0883908358 
3.0883908358 3.0883908358 3.0883908358 3.0824967795 3.0824967795 3.0883908358 3.0942848921 3.1001789484 3.1060730047 
3.1060730047 3.1060730047 3.1001789484 3.0942848921 3.0883908358 3.0883908358 3.0883908358 3.0883908358 3.0883908358 
3.0824967795 3.0824967795 3.0883908358 3.0942848921 3.1001789484 3.1001789484 3.1060730047 3.1060730047 3.1060730047 
3.1001789484 3.0942848921 3.0883908358 3.0883908358 3.0883908358 3.0824967795 3.0824967795 3.0824967795 3.0883908358 
3.0942848921 3.1001789484 3.1060730047 3.1060730047 3.1060730047 3.1001789484 3.1001789484 3.0942848921 3.0883908358 
3.0883908358 3.0883908358 3.0883908358 3.0883908358 3.0824967795 3.0824967795 3.0824967795 3.0883908358 3.0942848921 
3.1001789484 3.1060730047 3.1060730047 3.1060730047 3.1001789484 3.0942848921 3.0883908358 3.0883908358 3.0883908358 
3.0883908358 3.0824967795 3.0824967795 3.0883908358 3.0942848921 3.1001789484 3.1060730047 3.1060730047 3.1060730047 
3.1001789484 3.0942848921 3.0883908358 3.0883908358 3.0883908358 3.0883908358 3.0824967795 3.0824967795 3.0824967795 
3.0883908358 3.0942848921 3.1001789484 3.1060730047 3.1060730047 3.1060730047 3.1001789484 3.0942848921 3.0883908358 
3.0883908358 3.0883908358 3.0883908358 3.0824967795 3.0824967795 3.0883908358 3.0942848921 3.0942848921 3.1001789484 
3.1001789484 3.1060730047 3.1060730047 3.1060730047 3.1001789484 3.0942848921 3.0883908358 3.0883908358 3.0883908358 
3.0883908358 3.0824967795 3.0824967795 3.0824967795 3.0883908358 3.0942848921 3.1001789484 3.1060730047 3.1060730047 
3.1060730047 3.1001789484 3.0942848921 3.0883908358 3.0883908358 3.0883908358 3.0824967795 3.0824967795 3.0824967795 
3.0883908358 3.0942848921 3.1001789484 3.1060730047 3.1060730047 3.1060730047 3.1001789484 3.0942848921 3.0942848921 
3.0883908358 3.0883908358 3.0883908358 3.0883908358 3.0883908358 3.0824967795 3.0824967795 3.0883908358 3.0942848921 
3.1001789484 3.1060730047 3.1060730047 3.1001789484 3.0942848921 3.0883908358 3.0883908358 3.0883908358 3.0883908358 
3.0824967795 3.0824967795 3.0883908358 3.0942848921 3.1001789484 3.1001789484 3.1060730047 3.1060730047 3.1060730047 
3.1001789484 3.0942848921 3.0883908358 3.0883908358 3.0883908358 3.0824967795 3.0824967795 3.0824967795 3.0883908358 
3.0942848921 3.1001789484 3.1060730047 3.1060730047 3.1001789484 3.0942848921 3.0883908358 3.0883908358 3.0883908358 
3.0883908358 3.0824967795 3.0824967795 3.0824967795 3.0883908358 3.0942848921 3.1001789484 3.1060730047 3.1060730047 
3.1060730047 3.1001789484 3.0942848921 3.0883908358 3.0883908358 3.0883908358 3.0883908358 3.0883908358 3.0824967795 
3.0824967795 3.0883908358 3.0942848921 3.1001789484 3.1060730047 3.1060730047 3.1001789484 3.0942848921 3.0883908358 
3.0883908358 3.0883908358 3.0824967795 3.0824967795 3.0883908358 3.0942848921 3.1001789484 3.1060730047 3.1060730047 
3.1060730047 3.1060730047 3.1001789484 3.1001789484 3.0942848921 3.0883908358 3.0883908358 3.0883908358 3.0883908358 
3.0824967795 3.0824967795 3.0883908358 3.0942848921 3.1001789484 3.1001789484 3.1060730047 3.1060730047 3.1060730047 
3.1001789484 3.0942848921 3.0883908358 3.0883908358 3.0883908358 3.0824967795 3.0824967795 3.0766027232 3.0766027232 
3.0766027232 3.0766027232 3.0766027232 3.0766027232 3.0766027232 3.0824967795 3.0883908358 3.0942848921 3.0942848921 
3.1001789484 3.1060730047 3.1060730047 3.1001789484 3.0942848921 3.0883908358 3.0883908358 3.0883908358 3.0883908358 
3.0824967795 3.0766027232 3.0766027232 3.0766027232 3.0766027232 3.0766027232 3.0766027232 3.0766027232 3.0766027232 
3.0766027232 3.0824967795 3.0883908358 3.0942848921 3.1001789484 3.1060730047 3.111967061 3.111967061 3.111967061 
3.111967061 3.111967061 3.1060730047 3.1001789484 3.0942848921 3.0883908358 3.0883908358 3.0883908358 3.0883908358 
3.0824967795 3.0766027232 3.0766027232 3.0766027232 3.0766027232 3.0766027232 3.0766027232 3.0766027232 3.0766027232 
3.0824967795 3.0883908358 3.0942848921 3.1001789484 3.1060730047 3.1060730047 3.111967061 3.111967061 3.111967061 
3.111967061 3.1060730047 3.1001789484 3.0942848921 3.0883908358 3.0883908358 3.0883908358 3.0824967795 3.0766027232 
3.0766027232 3.0824967795 3.0883908358 3.0883908358 3.0942848921 3.1001789484 3.1001789484 3.1060730047 3.111967061 
3.111967061 3.111967061 3.1060730047 3.1060730047 3.1001789484 3.0942848921 3.0883908358 3.0883908358 3.0883908358 
3.0883908358 3.0883908358 3.0824967795 3.0766027232 3.0766027232 3.0766027232 3.0766027232 3.0824967795 3.0883908358 
3.0942848921 3.1001789484 3.1060730047 3.111967061 3.111967061 3.111967061 3.111967061 3.1060730047 3.1001789484 
3.0942848921 3.0883908358 3.0883908358 3.0883908358 3.0883908358 3.0883908358 3.0824967795 3.0766027232 3.0766027232 
3.0824967795 3.0883908358 3.0942848921 3.1001789484 3.1060730047 3.1060730047 3.111967061 3.111967061 3.111967061 
3.1060730047 3.1001789484 3.0942848921 3.0883908358 3.0883908358 3.0883908358 3.0824967795 3.0766027232 3.0766027232 
3.0766027232 3.0824967795 3.0824967795 3.0883908358 3.0942848921 3.0942848921 3.1001789484 3.1060730047 3.111967061 
3.111967061 3.111967061 3.111967061 3.111967061 3.1060730047 3.1001789484 3.0942848921 3.0883908358 3.0883908358 
3.0883908358 3.0883908358 3.0824967795 3.0766027232 3.0766027232 3.0766027232 3.0824967795 3.0883908358 3.0942848921 
3.1001789484 3.1060730047 3.111967061 3.111967061 3.111967061 3.1060730047 3.1001789484 3.0942848921 3.0942848921 
3.0883908358 3.0883908358 3.0883908358 3.0824967795 3.0766027232 3.0766027232 3.0824967795 3.0883908358 3.0942848921 
3.1001789484 3.1001789484 3.1060730047 3.1060730047 3.111967061 3.111967061 3.111967061 3.111967061 3.1060730047 
3.1060730047 3.1001789484 3.0942848921 3.0883908358 3.0883908358 3.0883908358 3.0824967795 3.0824967795 3.0766027232 
3.0766027232 3.0766027232 3.0766027232 3.0824967795 3.0883908358 3.0942848921 3.1001789484 3.1060730047 3.111967061 
3.111967061 3.1060730047 3.1001789484 3.0942848921 3.0883908358 3.0883908358 3.0883908358 3.0824967795 3.0766027232 
3.0766027232 3.0824967795 3.0883908358 3.0883908358 3.0942848921 3.1001789484 3.1060730047 3.111967061 3.111967061 
3.111967061 3.111967061 3.1060730047 3.1001789484 3.0942848921 3.0883908358 3.0883908358 3.0883908358 3.0824967795 
3.0766027232 3.0766027232 3.0766027232 3.0824967795 3.0883908358 3.0942848921 3.1001789484 3.1060730047 3.111967061 
3.111967061 3.111967061 3.1060730047 3.1001789484 3.0942848921 3.0883908358 3.0883908358 3.0824967795 3.0824967795 
3.0824967795 3.0824967795 3.0883908358 3.0883908358 3.0883908358 3.0824967795 3.0766027232 3.0766027232 3.0766027232 