# vtk DataFile Version 4.2
vtk output
ASCII
DATASET UNSTRUCTURED_GRID
POINTS 1740 double
2144.07 -94.44003 0 2911 0 0 16.54298 -37.82236 0 
5.09149 -21.30132 0 1.27433 -10.75385 0 0 0 0 
2.54575 15.14293 0 6.36291 23.76126 0 14.00014 34.89063 0 
30.50239 50.70793 0 33.39435 -52.93479 0 2050.91 -103.7862 0 
60.1465 -69.72165 0 88.83633 -83.2817 0 118.7656 -94.71113 0 
153.4168 -105.7022 0 199.5806 -117.771 0 261.4466 -130.7139 0 
345.846 -144.1892 0 460.3522 -157.0592 0 608.4185 -167.1903 0 
783.2313 -172.4016 0 941.0559 -172.4533 0 1063.409 -170.1096 0 
1164.153 -166.8746 0 1263.449 -162.682 0 1375.468 -156.8941 0 
1513.293 -148.414 0 1665.281 -137.5317 0 1791.864 -127.3721 0 
2195.451 -89.09491 0 2273.924 -80.67077 0 2383.731 -68.3513 0 
2517.64 -52.47337 0 2649.227 -35.9232 0 2740.773 -23.82991 0 
2804.387 -15.13419 0 2848.802 -8.916218 0 2881.944 -4.196067 0 
56.61447 67.79801 0 84.09687 81.25172 0 112.4783 92.48395 0 
142.1748 102.3504 0 174.8563 111.6168 0 213.124 120.8806 0 
260.3759 130.5151 0 324.6539 141.1779 0 418.1422 152.9178 0 
535.6656 162.9871 0 690.9154 170.4255 0 902.6513 172.7852 0 
1100.32 169.0517 0 1270.99 162.3262 0 1462.794 151.6837 0 
1631.287 140.0952 0 1747.993 131 0 1922.788 115.9027 0 
2069.56 101.951 0 2128.804 96.0021 0 2297.147 78.11721 0 
2414.379 64.80104 0 2554.023 47.99319 0 2673.693 32.73885 0 
2757.97 21.50315 0 2814.297 13.7575 0 2852.02 8.460961 0 
2882.272 4.148909 0 1791.052 127.4402 0 1366.894 157.3738 0 
1444.38 -152.8302 0 1547.039 146.1296 0 1589.287 -143.1614 0 
1878.731 119.8675 0 1997.072 108.9828 0 1185.654 166.0472 0 
1882.536 -119.5292 0 1971.323 -111.4145 0 1684.777 136.0292 0 
2099.317 -98.9855 0 2234.809 84.9091 0 2181.695 90.53914 0 
1728.573 -132.5703 0 1718.815 133.3509 0 1834.825 123.7132 0 
1960.305 112.4444 0 2033.69 105.4648 0 2099.184 98.99892 0 
2214.291 -77.28623808 396.8421 2955.512 12.784125138 396.8421 158.0786 -29.344273931 396.8421 
147.0109 -13.493851454 396.8421 143.3217 -3.3576373127 396.8421 142.09 6.9894982129 396.8421 
144.5505 21.580491733 396.8421 148.2398 29.895945247 396.8421 155.621 40.647008921 396.8421 
171.5701 55.953056914 396.8421 174.3652 -43.812336129 396.8421 2124.254 -86.328454954 396.8421 
200.2206 -59.844516194 396.8421 227.9488 -72.760757093 396.8421 256.8748 -83.620080707 396.8421 
290.3647 -94.035203761 396.8421 334.981 -105.43377003 396.8421 394.7733 -117.60164535 396.8421 
476.3434 -130.18156847 396.8421 587.0114 -142.05229644 396.8421 730.1145 -151.1616943 396.8421 
899.0676 -155.46490504 396.8421 1051.602 -154.91920716 396.8421 1169.853 -152.23651114 396.8421 
1267.221 -148.79574672 396.8421 1363.188 -144.4608808 396.8421 1471.452 -138.58056385 396.8421 
1604.657 -130.08167345 396.8421 1751.55 -119.29529517 396.8421 1873.891 -109.30686809 396.8421 
2263.949 -72.128488803 396.8421 2339.792 -64.017972901 396.8421 2445.918 -52.194210304 396.8421 
2575.338 -37.013183379 396.8421 2702.515 -21.250610713 396.8421 2790.992 -9.7677662537 396.8421 
2852.473 -1.5274679692 396.8421 2895.4 4.3569512422 396.8421 2927.431 8.8197407405 396.8421 
196.807 72.529241833 396.8421 223.3682 85.610198487 396.8421 250.7983 96.556024028 396.8421 
279.4994 106.19236452 396.8421 311.0855 115.26418462 396.8421 348.0705 124.35829728 396.8421 
393.7383 133.84926407 396.8421 455.8617 144.40540071 396.8421 546.2162 156.12514542 396.8421 
659.8003 166.33354952 396.8421 809.846 174.15340505 396.8421 1014.485 177.27433187 396.8421 
1205.528 174.40784036 396.8421 1370.477 168.4994473 396.8421 1555.851 158.80876683 396.8421 
1718.696 148.05783783 396.8421 1831.49 139.53268063 396.8421 2000.426 125.25971219 396.8421 
2142.278 111.96281196 396.8421 2199.537 106.26669363 396.8421 2362.236 89.058488811 396.8421 
2475.539 76.173752403 396.8421 2610.501 59.833255417 396.8421 2726.16 44.936716192 396.8421 
2807.613 33.928353003 396.8421 2862.05 26.322985746 396.8421 2898.509 21.115092235 396.8421 
2927.749 16.871027452 396.8421 1873.106 136.17971814 396.8421 1463.165 164.02079128 396.8421 
1538.054 -134.494508 396.8421 1637.272 153.67469158 396.8421 1678.104 -124.86196611 396.8421 
1957.846 129.02080996 396.8421 2072.22 118.67613468 396.8421 1288 171.80638543 396.8421 
1961.524 -101.63728338 396.8421 2047.334 -93.733229055 396.8421 1770.393 144.25467735 396.8421 
2171.038 -81.680029522 396.8421 2301.989 95.607315931 396.8421 2250.655 101.0231895 396.8421 
1812.721 -114.40913661 396.8421 1803.29 141.74220418 396.8421 1915.411 132.66054349 396.8421 
2036.686 121.97235434 396.8421 2107.61 115.32023945 396.8421 2170.909 109.13805131 396.8421 
2284.511 -63.655527275 793.6842 3000.027 22.704039095 793.6842 299.6143 -22.223710821 793.6842 
288.9304 -7.0112085177 793.6842 285.3691 2.7292909241 793.6842 284.1801 12.681594349 793.6842 
286.5551 26.730842448 793.6842 290.1167 34.745694206 793.6842 297.2417 45.117297001 793.6842 
312.6379 59.902151597 793.6842 315.336 -36.087072283 793.6842 2197.597 -72.404923832 793.6842 
340.2947 -51.421107876 793.6842 367.0612 -63.750232263 793.6842 394.9839 -74.096145122 793.6842 
427.3123 -83.99888949 793.6842 470.3812 -94.809594753 793.6842 528.0998 -106.30952735 793.6842 
606.8411 -118.13529256 793.6842 713.6708 -129.19057428 793.6842 851.8104 -137.50280599 793.6842 
1014.904 -141.14347161 793.6842 1162.147 -140.20250626 793.6842 1276.298 -137.32335107 793.6842 
1370.288 -133.78426289 793.6842 1462.927 -129.40357371 793.6842 1567.436 -123.52814161 793.6842 
1696.021 -115.11150006 793.6842 1837.82 -104.50736385 793.6842 1955.917 -94.740310514 793.6842 
2332.447 -58.673277153 793.6842 2405.659 -50.85009087 793.6842 2508.105 -39.468157589 793.6842 
2633.037 -24.890022367 793.6842 2755.801 -9.7906808996 793.6842 2841.209 1.187822037 793.6842 
2900.561 9.056243262 793.6842 2941.997 14.670396377 793.6842 2972.917 18.92570558 793.6842 
336.9995 75.941349944 793.6842 362.6396 88.621161895 793.6842 389.1182 99.248743813 793.6842 
416.8239 108.62001074 793.6842 447.3145 117.45723799 793.6842 483.0167 126.3332834 793.6842 
527.1009 135.61921534 793.6842 587.0697 145.98288029 793.6842 674.2905 157.55478264 793.6842 
783.9349 167.73909025 793.6842 928.7766 175.72386798 793.6842 1126.317 179.31788339 793.6842 
1310.735 177.06578845 793.6842 1469.963 171.7758951 793.6842 1648.908 162.84235762 793.6842 
1806.105 152.7890758 793.6842 1914.987 144.75635012 793.6842 2078.064 131.2254192 793.6842 
2214.996 118.54893363 793.6842 2270.269 113.10135468 793.6842 2427.326 96.590484233 793.6842 
2536.699 84.181853473 793.6842 2666.98 68.396725766 793.6842 2778.628 53.965181811 793.6842 
2857.255 43.278042554 793.6842 2909.806 35.884493968 793.6842 2945.001 30.817199568 793.6842 
2973.224 26.685169375 793.6842 1955.16 141.58594362 793.6842 1559.437 167.66941304 793.6842 
1631.729 -119.47300717 793.6842 1727.505 158.05441859 793.6842 1766.921 -109.97127638 793.6842 
2036.96 134.79940289 793.6842 2147.368 124.95646015 793.6842 1390.347 174.76543266 793.6842 
2040.511 -87.267000417 793.6842 2123.346 -79.58530294 793.6842 1856.009 149.211018 793.6842 
2242.759 -67.904569472 793.6842 2369.167 102.88278707 793.6842 2319.614 108.07844661 793.6842 
1896.869 -99.724202952 793.6842 1887.765 146.84236699 793.6842 1995.998 138.25267738 793.6842 
2113.066 128.09714759 793.6842 2181.531 121.75524957 793.6842 2242.634 115.84861494 793.6842 
2354.732 -52.760935798 1190.526 3044.539 30.253053326 1190.526 441.15 -16.143703355 1190.526 
430.8497 -1.5427380048 1190.526 427.4164 7.8148965533 1190.526 426.2701 17.382511416 1190.526 
428.5601 30.89938164 1190.526 431.9934 38.616294172 1190.526 438.8627 48.608879367 1190.526 
453.7057 62.866845949 1190.526 456.3069 -29.433928393 1190.526 2270.94 -61.216493371 1190.526 
480.3688 -44.114156175 1190.526 506.1737 -55.900239071 1190.526 533.0934 -65.776606295 1190.526 
564.26 -75.215976217 1190.526 605.7815 -85.501961365 1190.526 661.4265 -96.415610739 1190.526 
737.3385 -107.59468439 1190.526 840.33 -117.97352412 1190.526 973.5064 -125.65810105 1190.526 
1130.74 -128.82153342 1190.526 1272.693 -127.63768194 1190.526 1382.742 -124.67013727 1190.526 
1473.356 -121.11474103 1190.526 1562.666 -116.76243889 1190.526 1663.42 -110.96721616 1190.526 
1787.385 -102.71325958 1190.526 1924.09 -92.362815312 1190.526 2037.944 -82.862109625 1190.526 
2400.946 -47.950905034 1190.526 2471.527 -40.404752533 1190.526 2570.292 -29.438870327 1190.526 
2690.735 -15.413568351 1190.526 2809.091 -0.90736459977 1190.526 2891.43 9.6284531464 1190.526 
2948.647 17.174275385 1190.526 2988.597 22.555736672 1190.526 3018.403 26.633387836 1190.526 
477.1918 78.353733768 1190.526 501.9109 90.612639766 1190.526 527.4382 100.89947201 1190.526 
554.1485 109.98055064 1190.526 583.5435 118.55423817 1190.526 617.963 127.17726202 1190.526 
660.4633 136.21344745 1190.526 718.2775 146.32194075 1190.526 802.3645 157.65222012 1190.526 
908.0698 167.69172024 1190.526 1047.707 175.68028073 1190.526 1238.151 179.53090308 1190.526 
1415.942 177.70081827 1190.526 1569.449 172.87561361 1190.526 1741.965 164.54516233 1190.526 
1893.514 155.07422367 1190.526 1998.484 147.46694832 1190.526 2155.702 134.60010617 1190.526 
2287.714 122.50153991 1190.526 2341.001 117.29181001 1190.526 2492.415 101.4696531 1190.526 
2597.858 89.551368767 1190.526 2723.46 74.361664675 1190.526 2831.095 60.450643473 1190.526 
2906.899 50.136154074 1190.526 2957.56 42.994697744 1190.526 2991.49 38.097645876 1190.526 
3018.699 34.102997513 1190.526 2037.214 144.45740451 1190.526 1655.708 169.06156201 1190.526 
1725.403 -106.9849595 1190.526 1817.738 160.0431255 1190.526 1855.738 -97.690567032 1190.526 
2116.075 138.00403745 1190.526 2222.516 128.62150964 1190.526 1492.694 175.62301174 1190.526 
2119.498 -75.608576883 1190.526 2199.357 -68.164828452 1190.526 1941.625 151.68907518 1190.526 
2314.479 -56.865843919 1190.526 2436.346 107.50478392 1190.526 2388.573 112.48330894 1190.526 
1981.017 -87.706709365 1190.526 1972.24 149.44504219 1190.526 2076.584 141.28948909 1190.526 
[...]
POINT_DATA 1740
FIELD FieldData 1
Pressure 1 1740 double
3.1050384105 3.0182586879 3.0093122449 2.9857315476 2.9782002467 2.9583134925 2.9710695905 2.9884004281 3.0194813542 
3.0332608794 3.0104244856 3.1090162303 3.0335150276 3.0480353647 3.0652836798 3.0640930501 3.0816417478 3.0869260758 
3.1078477894 3.1128616666 3.1315813667 3.1401345831 3.1424125764 3.1483891169 3.1437274581 3.1397001765 3.1362684283 
3.1326746001 3.1257449994 3.1199934965 3.1024583928 3.0990009658 3.0933844332 3.0852294767 3.0743203055 3.0642345628 
3.0542812736 3.0456035993 3.0373750935 3.0693801277 3.0813321892 3.0942069392 3.1074575256 3.1135754796 3.1205945914 
3.1277986147 3.1356171051 3.1513556488 3.1638487771 3.1808141577 3.1916704231 3.1981404137 3.2040659783 3.209651036 
3.213460621 3.2164301826 3.217146798 3.105037672 3.0962181242 3.0851153334 3.0792675233 3.0704621912 3.0608361951 
3.0505460283 3.0402869884 3.0328340964 3.0315006214 3.2162076172 3.2074718638 3.1350787398 3.2109267262 3.1291636479 
3.2167561977 3.2181449487 3.2048809758 3.1161918935 3.1124808119 3.2145128941 3.106905588 3.0890254019 3.0910508225 
3.1226693919 3.2161688993 3.2165011584 3.2171984214 3.2323184503 3.093627135 3.1020113309 3.0233918843 3.0272335246 
3.0008319781 3.0079736679 2.9862146496 2.9949362328 3.0069238414 3.0347491598 3.0533460262 3.0348707958 3.1063321193 
3.0550653024 3.0675281487 3.0810620901 3.0850453918 3.1004965628 3.1099736502 3.1232035659 3.1284469613 3.1387554789 
3.1431960884 3.147020309 3.1475443386 3.1430574023 3.1383904572 3.1329983803 3.1286994346 3.122546263 3.1171105479 
3.0996981925 3.095604559 3.0899425574 3.0819458118 3.0710294682 3.0609473708 3.0511865677 3.043604995 3.028471145 
3.0864225712 3.1072092449 3.1195736494 3.1279769629 3.1369904135 3.1416176832 3.1471241265 3.1574325932 3.169230812 
3.1780193009 3.1874922889 3.1952560305 3.2015292387 3.2078009526 3.2107241716 3.2134931765 3.2163093959 3.2184856288 
3.0959619083 3.0972312239 3.0904027353 3.0844589294 3.076056347 3.0652842991 3.0549828362 3.044995377 3.038432175 
3.0388778763 3.216872479 3.2094829053 3.1318010358 3.2132192368 3.1253339106 3.2181448156 3.2188411504 3.2063988398 
3.1132409594 3.1095682022 3.2148954568 3.1043775544 3.0936215702 3.0962113024 3.119994405 3.2156389673 3.216844375 
3.2188353363 3.1175762014 3.0981829809 3.0999424143 3.0239455053 3.0280836888 3.0005551516 3.0025232576 2.9847110026 
2.9973580985 3.0107992391 3.0393376396 3.0607786197 3.0431182677 3.1041590663 3.0579865572 3.0770835923 3.0952531677 
3.1018755552 3.1143718322 3.1226982963 3.1355493958 3.1418123085 3.1485486313 3.151102705 3.150600443 3.1490084854 
3.1428456 3.1370288533 3.1316218647 3.1258790792 3.1203641909 3.1152004234 3.0976103592 3.0937668938 3.0879595297 
3.0800822487 3.0691051692 3.058882505 3.0497033002 3.0424061452 3.0287500138 3.0936080199 3.115309741 3.1340383344 
3.1429066134 3.1532547402 3.161764126 3.1716767713 3.1760505426 3.1844131074 3.1941882671 3.1996613012 3.2051400904 
3.2075356452 3.2140613144 3.2164192329 3.2169365348 3.2188620434 3.2229862847 3.0950970645 3.0947599879 3.0915525257 
3.0861686816 3.0782298914 3.0675544519 3.0575749927 3.0477742556 3.0405018598 3.0417947724 3.2193257424 3.2154867504 
3.1292349989 3.2171202641 3.1230508344 3.2201792861 3.0948926068 3.2114966665 3.1112834117 3.1075126053 3.217495562 
3.1022989895 3.0940397825 3.0951400534 3.1177807265 3.217914272 3.2196612254 3.2160690513 3.0916829333 3.0947727551 
3.0985057202 3.0243392631 3.0288184999 3.0006047663 3.002895005 2.9829026191 2.9928176688 3.0071536019 3.0402167412 
3.0617660227 3.0427851734 3.1026991719 3.0630990543 3.0806459108 3.0997307818 3.1086562322 3.1207258322 3.1293142328 
3.1416802827 3.1492131616 3.1549059276 3.1560262858 3.1541914048 3.1504348775 3.1432450228 3.1369363564 3.1309744478 
3.1250415664 3.1188702681 3.1136867155 3.09622473 3.0924028561 3.0868503488 3.0790317459 3.0682498874 3.0580602694 
3.0492991306 3.0420040327 3.0289003935 3.0977223913 3.1208275848 3.136398703 3.1484330129 3.1560062852 3.166815443 
3.1791145857 3.1890380409 3.1968122004 3.206301052 3.2117425612 3.2158807905 3.2166718734 3.2220210636 3.2239194236 
3.2235179032 3.2245354352 3.2165602486 3.0931819719 3.0941318922 3.0908009877 3.0855208893 3.0775831168 3.0675184946 
3.0578336125 3.0483781356 3.0408664924 3.0423617909 3.2245746589 3.2231400677 3.1284877077 3.2240894808 3.1218038896 
3.2246225197 3.0879610904 3.2197302381 3.1098719177 3.1059469437 3.223841303 3.1007572216 3.0930418607 3.0939645118 
3.1162138663 3.2238170221 3.2250044786 3.1028050687 3.0922862109 3.093712517 3.0976302414 3.0241927726 3.0309377787 
3.0014698136 3.008765453 2.987492606 2.9947358546 3.0082591579 3.0423298149 3.0631792739 3.0440141333 3.1017854022 
3.0655173304 3.0829875689 3.1000920818 3.1100118503 3.1227225567 3.1332309461 3.1445033121 3.1528599799 3.1588567937 
3.1588907255 3.1557057255 3.1504134739 3.1426242381 3.1359736644 3.1297866936 3.1240619745 3.1180352601 3.1125850805 
3.0953495124 3.091525276 3.0860720132 3.078324624 3.0677721292 3.0577603638 3.0491788353 3.0417958053 3.0292006695 
3.0992900908 3.1229118256 3.1380140518 3.1510251559 3.1600072302 3.1711914269 3.1824831068 3.1884780867 3.199450596 
3.211690332 3.2202416274 3.2241825512 3.2254108019 3.2298163477 3.2310311114 3.2304316224 3.230919628 3.0965286563 
3.0910850594 3.091239317 3.0887966382 3.0837406212 3.0760102538 3.0662978283 3.0568473247 3.0476768035 3.0401722732 
3.0421899607 3.2311512804 3.2311220328 3.1275122815 3.2309728157 3.1209233543 3.2289065371 3.0884747344 3.2280531518 
3.1088126389 3.1048632773 3.2305105872 3.0996664263 3.090773263 3.0909130486 3.115280534 3.2305708652 3.2320839593 
3.0862023708 3.0905474923 3.0913363064 3.0969279145 3.0238396335 3.0319940896 3.0027036806 3.0105981059 2.9885735955 
2.9962303852 3.0098349302 3.043337049 3.0651685756 3.0449804013 3.1009570182 3.0667617783 3.0848617459 3.1011784259 
3.1115593001 3.1243211695 3.1355940114 3.1471988499 3.1557129776 3.162230599 3.1612004723 3.1567624486 3.1500107583 
3.1418639911 3.1350857961 3.1288453022 3.1231431412 3.117146135 3.1117252918 3.0946332549 3.0908179092 3.0854552218 
3.0777751293 3.0673464645 3.0574110918 3.0489465533 3.0415180157 3.0294128461 3.1009972718 3.1249884342 3.1401302449 
3.1531991483 3.1622271749 3.1739249953 3.1864660135 3.1937646989 3.2050759753 3.2166607641 3.2269682448 3.2316883618 
3.2335145214 3.2384151651 3.239320438 3.2378622089 3.2377512444 3.0880134518 3.0907924029 3.0902848147 3.0873951726 
3.0825754544 3.0751595861 3.0655092066 3.0561558598 3.0473264897 3.03974902 3.041920292 3.2377427734 3.2390351095 
3.12656557 3.2387250764 3.1200313469 3.2226832447 3.0901088516 3.2361260018 3.1079421855 3.1040301639 3.237508071 
3.0990117551 3.0893293336 3.0897722025 3.1144368371 3.2374625024 3.2406272547 3.0912673468 3.0906227766 3.0905842422 
3.0963806117 3.0235265662 3.0323368992 3.0027314418 3.010222268 2.9882772794 2.996204045 3.0100054159 3.0435937126 
3.0657137363 3.0455773543 3.1004066674 3.067493586 3.0858317525 3.1021148306 3.1128215303 3.125650233 3.1373522377 
3.1491180946 3.1578161053 3.1646889195 3.1629490091 3.1574528927 3.1495556985 3.1413829782 3.1345826098 3.1284022789 
3.1225280022 3.1165580284 3.1111542724 3.0941159203 3.0903298197 3.08501635 3.0774061166 3.0670464046 3.057141029 
3.0487300111 3.041268412 3.029562455 3.1017144821 3.126028609 3.1414420567 3.1546390095 3.1639683819 3.1758230986 
3.1883339865 3.1963803719 3.2082249794 3.2208106871 3.2319405631 3.2383892907 3.2410297653 3.246698952 3.2479630562 
3.246331339 3.2455917853 3.0858099427 3.0897693295 3.0893166459 3.0865547702 3.0818865678 3.0746477362 3.0650537101 
3.0558752002 3.0471206393 3.0395801425 3.0419040756 3.2453010204 3.2474109525 3.1259996935 3.2474456024 3.1194423947 
3.125579721 3.0881588748 3.2438864765 3.1073495158 3.1034406026 3.2456373232 3.0984342546 3.0884187493 3.0893259849 
3.1138214699 3.2452810278 3.2472418891 3.0887722082 3.0890552642 3.0897789965 3.0960684787 3.0231207586 3.0326629324 
3.0028563556 3.0103425246 2.9885183063 2.9962363463 3.0100228814 3.0437913372 3.0658998812 3.046019666 3.1001425896 
3.0680101056 3.0863792318 3.102626975 3.1135852186 3.1264996581 3.1385458142 3.1503102151 3.1591748834 3.1664265814 
3.1641368196 3.1577677333 3.1491473519 3.1410820903 3.134293409 3.1281631824 3.1221034972 3.1162221386 3.1108158434 
3.0938397268 3.0900765456 3.0848036259 3.0772361054 3.0669235877 3.05700636 3.0486144193 3.0411129881 3.0297854733 
3.1020735752 3.1266291664 3.1422194795 3.1555546559 3.1649980976 3.1770008875 3.1895702815 3.1982125063 3.2103789887 
3.2234655965 3.2351060195 3.2426631034 3.2469721394 3.2531990726 3.2551483694 3.2546184445 3.2536909342 3.0853061116 
3.0873221705 3.0868699102 3.0847228804 3.0802688578 3.0732545982 3.0639322892 3.0550511055 3.0464352407 3.0388881869 
3.0416949786 3.2535119896 3.2549931093 3.1256448943 3.2552060934 3.1190723085 3.114288947 3.0859045127 3.2502674592 
3.1070198221 3.1031574514 3.2539806611 3.0981496168 3.0864814665 3.0871050268 3.1134893308 3.2534628441 3.2531353396 
3.0870580685 3.0860031452 3.0875314451 3.0960120786 3.0227040041 3.032966909 3.0030307906 3.0105205745 2.9887690291 
2.9964776588 3.0102681408 3.0440585879 3.0661805855 3.0463999159 3.1000685827 3.068398296 3.0868208927 3.1030531636 
3.1141802043 3.127169146 3.1394462991 3.1512579614 3.1603289203 3.1677456491 3.1650833522 3.1579744827 3.1489466616 
3.1409635963 3.1341587021 3.1280938445 3.121869747 3.1161009213 3.1106937587 3.0937742425 3.0900130419 3.0847630085 
3.0772037618 3.0669264746 3.0569674524 3.0485841086 3.0410560417 3.0299773548 3.1024603863 3.1271670818 3.1428644774 
3.1563126609 3.1658420957 3.1779619531 3.1905389331 3.1995237592 3.2120083974 3.2254417048 3.237333366 3.2462381788 
3.2512199045 3.2583991465 3.2617496626 3.2611243796 3.2609319691 3.0824270019 3.0847281947 3.0842132949 3.0823874795 
3.0780861852 3.0712483057 3.0621863454 3.0535447042 3.0451641386 3.0377079033 3.040869279 3.2615463559 3.2604208531 
3.1254550103 3.2615086169 3.1189263005 3.1113695394 3.0838329624 3.2548746678 3.1068957075 3.1030716558 3.2609319457 
3.0980600655 3.0840605761 3.08434344 3.1133559487 3.2606266239 3.2617794171 3.0845727039 3.0836038344 3.0849711333 
3.0960300393 3.0224643279 3.0332166536 3.0032009125 3.0106792231 2.9889204555 2.9967792853 3.0105621201 3.044263765 
3.0664742436 3.0465777049 3.1000182125 3.0686189875 3.0871882561 3.1034318358 3.1146835637 3.127707136 3.1401376689 
3.1520530097 3.1612974873 3.1688440515 3.1659286779 3.1582823062 3.1490152609 3.1410513339 3.1342085842 3.1281824329 
3.1218965357 3.1161200281 3.1106901092 3.0937722987 3.0900242224 3.0848088713 3.0772336632 3.066985366 3.0569912712 
3.0486132693 3.0410757301 3.0300199851 3.1028197774 3.1276738841 3.1434234578 3.1569648242 3.1665898408 3.1787932123 
3.1914093974 3.2006077161 3.2133503436 3.2270344717 3.2391365571 3.2485382212 3.2543985608 3.2620754769 3.2660178454 
3.2666677183 3.2670495241 3.0804970472 3.0819176275 3.0819182079 3.0802319467 3.0760502325 3.0694358507 3.060508667 
3.0520080769 3.043872834 3.0365576096 3.039826937 3.2676895953 3.2645312354 3.1255203549 3.2666756877 3.1189524339 
3.1211617712 3.0807103801 3.2583218062 3.1069348297 3.1030676698 3.2666101657 3.0980320493 3.0819111338 3.0820234291 
3.1133357352 3.2665730126 3.2651476113 3.0833061106 3.0813700227 3.0821769265 3.0960704962 3.0225002458 3.03341762 
3.0033874817 3.0108405067 2.9890276133 2.9971272595 3.0108649189 3.0444476981 3.0667507634 3.0467075965 3.1000726365 
3.0687800287 3.0873587833 3.1037072112 3.1150794411 3.128084658 3.1406408167 3.1526995227 3.1621754996 3.1697272744 
3.1667232632 3.1587263409 3.149302566 3.1412964084 3.1344306435 3.1283848334 3.1220455969 3.1162731297 3.1108145181 
3.0938340279 3.0900967122 3.0849056159 3.0773096089 3.0670827438 3.0570483721 3.0486682655 3.041132567 3.0299716571 
3.1031605078 3.1281311174 3.1439618985 3.1575825298 3.1672705388 3.1795456274 3.1922092095 3.2015476118 3.2144900562 
3.2283631924 3.240685704 3.2503421025 3.2566246423 3.2647830263 3.2691071909 3.2704350396 3.2710897213 3.0785496445 
3.0824254293 3.0811475643 3.0786024412 3.0745059033 3.0681822585 3.0592793107 3.0508664593 3.0429091422 3.0357673808 
3.0389266039 3.2720756376 3.2674426946 3.1257010021 3.2702223717 3.1191181358 3.1719073591 3.0793892601 3.2607730525 
3.1070826073 3.1032169097 3.2706671811 3.0980316918 3.0801302839 3.0805559202 3.1134475703 3.2707537901 3.2700776933 
3.0837113858 3.0804288191 3.0835344641 3.0962209065 3.0226861011 3.033589668 3.0035690142 3.0109952414 2.9890793746 
2.9975107956 3.0112044884 3.0447226284 3.0670970549 3.0467444665 3.1002740373 3.068845432 3.0874190836 3.1038011242 
3.1152674399 3.1283257818 3.1409897892 3.153191411 3.163051882 3.1704830778 3.1675623766 3.1593595311 3.1498062909 
3.1416667809 3.134764026 3.1286566917 3.1223772446 3.1165480177 3.1110582044 3.09399674 3.0902379778 3.0850601735 
3.0774271333 3.0672054757 3.0571275687 3.0487390312 3.0411852171 3.0300595882 3.10355346 3.1286160081 3.1445130328 
3.1582052165 3.1679585712 3.1802809484 3.1929806842 3.2024279048 3.2155474318 3.2295194075 3.2420529103 3.2518555542 
3.258379304 3.2669439269 3.2714608458 3.2732408353 3.2741742612 3.0784825915 3.0826666822 3.0806166925 3.0773931539 
3.0733902529 3.0672179864 3.0582773995 3.0499646434 3.0420969791 3.0351717265 3.0381193058 3.2749466208 3.2697153789 
3.1260426994 3.2728010259 3.1194164027 3.1931701387 3.0790115163 3.2626580204 3.1073442394 3.1035556569 3.2736492026 
3.0981748106 3.0789226813 3.0796969755 3.113680384 3.2737889275 3.278141843 3.0844724669 3.0802521913 3.0837188768 
3.0964101525 3.022767825 3.0337989927 3.003793547 3.0110456574 2.9890865768 2.9978112592 3.0115279581 3.0451559729 
3.0675708847 3.0466998684 3.1004755778 3.0688210952 3.0873819079 3.103826299 3.1154087301 3.1284840753 3.1412630605 
3.1536811718 3.163723039 3.1712793688 3.1685870979 3.1603230587 3.1505208327 3.1421668323 3.1351964492 3.1290085194 
3.1227817805 3.1168697566 3.111310176 3.0941632451 3.0903690966 3.0852054222 3.0775153469 3.0672926544 3.0571665775 
3.0487743779 3.0411941844 3.0302151002 3.1040303806 3.1291661792 3.1451261445 3.1588859358 3.1686977642 3.1810324494 
3.1937765235 3.2033193884 3.2166387746 3.2306267318 3.2432860355 3.2532635102 3.2598839187 3.2685954733 3.2733108618 
3.2753327879 3.2764689466 3.0790921344 3.0794994898 3.0788155044 3.0761780857 3.0720578538 3.0658369747 3.0570123243 
3.0488631891 3.041056111 3.0344168239 3.0371429964 3.2771153042 3.2715311801 3.1264658972 3.2746953861 3.1197571601 
3.1934469895 3.0797407995 3.2642141078 3.1075857095 3.1038417037 3.2758530752 3.0983337473 3.077733502 3.0782623436 
3.1139313014 3.2760413498 3.2805222991 3.0838828737 3.079663335 3.0809403374 3.0965434926 3.0227289348 3.0341681273 
3.0041852962 3.0111338544 2.989215065 2.998268956 3.0119682923 3.0457395003 3.0682227174 3.046590935 3.1005920705 
3.0687476271 3.0872944925 3.1037936475 3.1155108899 3.1286198913 3.1414582699 3.154118783 3.1646127161 3.1721676567 
3.1698826969 3.1617167013 3.1514576356 3.1427658318 3.1356721573 3.1293658877 3.1230917461 3.1170017968 3.1114706727 
3.0942759824 3.0904662123 3.0853013177 3.0775665801 3.0673284359 3.0571729144 3.0487695083 3.0411687945 3.0302571502 
3.1046459018 3.1298433147 3.1458437418 3.1596551588 3.1695230453 3.1818528943 3.1946391599 3.2042804695 3.2178066679 
3.2316990418 3.2444988191 3.2544675935 3.2612231624 3.2699732563 3.2749260207 3.2770465626 3.2784303262 3.0757673567 
3.0767151412 3.0764615593 3.0743403993 3.0703149396 3.0641023294 3.0555466227 3.0475753083 3.0399006582 3.033560894 
3.0360616209 3.2791731149 3.2731116346 3.1268227647 3.2764300976 3.1199990905 3.1631408067 3.0771819618 3.2655734623 
3.1077461589 3.1039795151 3.277633005 3.0984500798 3.0756942657 3.0757992097 3.114049246 3.2778681654 3.2805318562 
3.0814645459 3.0765470336 3.0770841594 3.0966927893 3.0227518398 3.0344622165 3.0048499351 3.0114901476 2.989612871 
2.9989508052 3.0126966648 3.0464114025 3.0690174908 3.0463380632 3.1007898093 3.0684213878 3.0870010237 3.1035260067 
3.1153249479 3.1284367262 3.1413732524 3.1543953844 3.1650688887 3.1732032547 3.1714495239 3.1635672834 3.1525432469 
3.1433406525 3.1360223025 3.1294994704 3.1232997208 3.1172042299 3.111683302 3.0944249671 3.090608889 3.0854113479 
3.0776527214 3.0673700212 3.0571590856 3.0487311912 3.041081209 3.0300579046 3.1052087408 3.1305777264 3.1466293584 
3.1604305857 3.1704040084 3.1826049247 3.1954799399 3.2052613213 3.2188416436 3.2327257235 3.2455023013 3.2558461785 
3.2626398688 3.271372643 3.2769117739 3.2795060008 3.2810927342 3.0740673943 3.0752016656 3.0748562937 3.0731515927 
3.0693784775 3.0632288437 3.0548457733 3.046952598 3.0394223727 3.0331610097 3.035634395 3.2816362981 3.2746342547 
3.1270369034 3.2785690009 3.1200969743 3.1264908761 3.075230135 3.2669515762 3.1079400354 3.1041758399 3.2798528136 
3.0986333094 3.0743256947 3.0742193839 3.1142999531 3.2801759914 3.2892521727 3.0773386033 3.0748085498 3.0754914374 
3.0968901999 3.0229235583 3.0334909046 3.004688648 3.0117929929 2.9895503034 2.9993726692 3.0132327554 3.046006523 
3.0693404503 3.0452417006 3.1011214384 3.0669994126 3.0858014597 3.1025141151 3.1145486743 3.127758446 3.1400707585 
3.1544915097 3.1644921864 3.1741416203 3.1735291808 3.1659364162 3.1537644585 3.1439065239 3.1362432878 3.1295133959 
3.1233572083 3.1179541301 3.1121535355 3.0945942751 3.0907623685 3.0855327772 3.0777051299 3.0673150291 3.0570216386 
3.0485587859 3.0408140716 3.0291639929 3.1055639384 3.1311125927 3.1473148532 3.1609382361 3.171119969 3.1834278171 
3.1962349557 3.2062284924 3.2199758143 3.2340006592 3.2473617315 3.2574339043 3.2645523009 3.2737052317 3.2803572339 
3.2827107429 3.2833482445 3.0671991935 3.0752481881 3.075108267 3.0740081634 3.0701728977 3.0639986608 3.0556459528 
3.0477691552 3.0401859458 3.033890998 3.0363726397 3.2869680868 3.2772826995 3.1272437173 3.2818650802 3.1202542546 
3.0534035338 3.0727639122 3.268801429 3.1083786797 3.1043814571 3.2828055739 3.0988691363 3.0751328018 3.0750648092 
3.1148479438 3.2831224023 3.2395190184 3.0712468911 3.0746605787 3.0754537146 3.0969279302 3.0228619774 3.031368205 
3.0027592562 3.0080540852 2.9875669207 2.9988668774 3.0131478701 3.0475628552 3.0700310242 3.0433854833 3.1009965174 
3.0656977981 3.0843575883 3.101316426 3.1128942947 3.1262293212 3.1378602742 3.1548270344 3.165180793 3.17630642 
3.1780240117 3.1695639626 3.1561084243 3.1446686848 3.1364100818 3.1297734586 3.1233354283 3.1175190663 3.1125626421 
3.0948671029 3.0908876408 3.0856498855 3.0779915593 3.0672838148 3.0567842893 3.0481202741 3.0402024234 3.0273518694 
3.1068707762 3.1317118893 3.1487395612 3.1632336711 3.1732967801 3.1854316958 3.1978512695 3.2086324748 3.22314314 
3.2375361204 3.2509711655 3.2646961095 3.2690629387 3.2775061882 3.2826723907 3.2827673394 3.2849385388 3.0773435006 
3.0777484555 3.0773241444 3.0771347028 3.0727817036 3.0669683078 3.0579310986 3.0500950794 3.0424130883 3.03600607 
3.0383390605 3.2565063575 3.2806823072 3.1270696487 3.2830425718 3.1205422815 3.0859456961 3.0764276976 3.2726996839 
3.1081068894 3.1042297325 3.2831447487 3.0989532329 3.0781346404 3.0782996349 3.1151867305 3.2826111943 3.0530836314 
3.0766431431 3.0764755407 3.0777469646 3.0972557036 3.0254234593 3.0330897157 3.0053227425 3.0103386911 2.9900087346 
3.0041285858 3.0177862392 3.0551754274 3.0744693468 3.0459561523 3.1004679335 3.0617473054 3.0821072885 3.1000411017 
3.1138138577 3.1269496581 3.1389241064 3.1589557381 3.1786840991 3.183260778 3.1817742451 3.1717727395 3.1565987765 
3.1447291479 3.1360636713 3.1291469974 3.1221558204 3.1154056579 3.1101779565 3.0943716701 3.0917821153 3.0863155121 
3.0769785242 3.0675176233 3.0561963947 3.0470898868 3.0384738433 3.0253429396 3.108322614 3.1336722474 3.1556736468 
3.1698559644 3.1789268495 3.1953174053 3.2046922017 3.2145492346 3.233001523 3.2447430122 3.2608082448 3.2696027843 