# vtk DataFile Version 4.2
vtk output
ASCII
DATASET POLYDATA
POINTS 6480 float
2403.3 -3237.17 5800 2406.83 -3243.87 5800 2410.15 -3250.17 5800 
2571.32 -3250.16 5800 2580.84 -3245.68 5800 2597.52 -3237.16 5800 
2396.45 -3224.17 5800 2609.84 -3230.86 5800 2622.97 -3224.16 5800 
2389.6 -3211.16 5800 2638.84 -3216.05 5800 2648.41 -3211.16 5800 
2382.75 -3198.16 5800 2667.85 -3201.23 5800 2673.86 -3198.15 5800 
2375.9 -3185.16 5800 2377.84 -3188.83 5800 2696.85 -3186.41 5800 
2699.31 -3185.15 5800 2369.11 -3172.16 5800 2724.76 -3172.15 5800 
2362.85 -3159.16 5800 2725.85 -3171.59 5800 2750.21 -3159.15 5800 
2356.76 -3146.16 5800 2754.85 -3156.78 5800 2775.66 -3146.15 5800 
2350.67 -3133.16 5800 2783.85 -3141.96 5800 2801.11 -3133.14 5800 
2344.58 -3120.16 5800 2348.84 -3129.25 5800 2812.86 -3127.14 5800 
2826.56 -3120.14 5800 2338.49 -3107.16 5800 2841.86 -3112.33 5800 
2852.01 -3107.14 5800 2332.4 -3094.16 5800 2870.86 -3097.51 5800 
2874.9 -3094.14 5800 2326.3 -3081.16 5800 2886.3 -3081.14 5800 
2320.21 -3068.16 5800 2892.9 -3068.14 5800 2314.12 -3055.16 5800 
2319.84 -3067.37 5800 2898.59 -3055.14 5800 2308.03 -3042.15 5800 
2899.87 -3052.21 5800 2904.27 -3042.13 5800 2301.94 -3029.15 5800 
2909.95 -3029.13 5800 2295.85 -3016.15 5800 2915.63 -3016.13 5800 
2289.76 -3003.15 5800 2290.85 -3005.48 5800 2921.31 -3003.13 5800 
2283.66 -2990.15 5800 2927 -2990.13 5800 2277.57 -2977.15 5800 
2928.87 -2985.84 5800 2932.68 -2977.13 5800 2271.48 -2964.15 5800 
2938.36 -2964.13 5800 2265.39 -2951.15 5800 2944.04 -2951.13 5800 
2259.3 -2938.15 5800 2261.85 -2943.6 5800 2949.72 -2938.12 5800 
2253.21 -2925.15 5800 2955.4 -2925.12 5800 2247.12 -2912.15 5800 
2957.88 -2919.46 5800 2961.09 -2912.12 5800 2241.02 -2899.15 5800 
2966.77 -2899.12 5800 2234.93 -2886.15 5800 2972.45 -2886.12 5800 
2228.84 -2873.14 5800 2232.86 -2881.71 5800 2978.13 -2873.12 5800 
2222.75 -2860.14 5800 2983.81 -2860.12 5800 2216.66 -2847.14 5800 
2986.88 -2853.09 5800 2989.49 -2847.12 5800 2210.57 -2834.14 5800 
2995.18 -2834.11 5800 2204.48 -2821.14 5800 3000.86 -2821.11 5800 
2193.53 -2808.14 5800 2203.86 -2820.22 5800 3006.54 -2808.11 5800 
2172.63 -2795.14 5800 2174.86 -2796.53 5800 3012.22 -2795.11 5800 
2151.72 -2782.14 5800 3015.89 -2786.72 5800 3017.84 -2782.11 5800 
2129.52 -2769.14 5800 2145.86 -2778.49 5800 3023.21 -2769.11 5800 
2105.6 -2756.14 5800 2116.86 -2762.17 5800 3028.17 -2756.11 5800 
2081.3 -2743.14 5800 2087.86 -2746.65 5800 3033.12 -2743.11 5800 
2057 -2730.14 5800 2058.86 -2731.13 5800 3038.08 -2730.11 5800 
2032.71 -2717.14 5800 3043.03 -2717.1 5800 2008.41 -2704.14 5800 
2029.86 -2715.62 5800 3044.9 -2712.21 5800 3047.99 -2704.1 5800 
1984.11 -2691.14 5800 2000.86 -2700.1 5800 3052.94 -2691.1 5800 
1959.82 -2678.14 5800 1971.86 -2684.58 5800 3057.9 -2678.1 5800 
1940.7 -2665.14 5800 1942.86 -2669.07 5800 3062.85 -2665.1 5800 
1935.41 -2652.14 5800 3067.81 -2652.1 5800 1935.7 -2639.14 5800 
3072.76 -2639.1 5800 1935.98 -2626.14 5800 3073.9 -2636.11 5800 
3077.72 -2626.1 5800 1936.26 -2613.13 5800 3082.67 -2613.09 5800 
1936.55 -2600.13 5800 3087.63 -2600.09 5800 1936.83 -2587.13 5800 
3092.58 -2587.09 5800 1937.12 -2574.13 5800 3097.54 -2574.09 5800 
1937.4 -2561.13 5800 3102.49 -2561.09 5800 1937.69 -2548.13 5800 
3102.91 -2560 5800 3107.45 -2548.09 5800 1937.97 -2535.13 5800 
3112.41 -2535.09 5800 1938.26 -2522.13 5800 3117.36 -2522.09 5800 
1938.54 -2509.13 5800 3122.32 -2509.09 5800 1938.82 -2496.13 5800 
3127.27 -2496.08 5800 1939.11 -2483.12 5800 3131.92 -2483.89 5800 
3132.23 -2483.08 5800 1939.39 -2470.12 5800 3142.71 -2470.08 5800 
1939.68 -2457.12 5800 3154.49 -2457.08 5800 1939.96 -2444.12 5800 
3160.92 -2450.38 5800 3166.98 -2444.08 5800 1940.25 -2431.12 5800 
3179.47 -2431.08 5800 1940.53 -2418.12 5800 3189.92 -2420.19 5800 
3191.96 -2418.08 5800 1940.82 -2405.12 5800 3204.45 -2405.07 5800 
1941.1 -2392.12 5800 3216.94 -2392.07 5800 1941.38 -2379.12 5800 
3218.93 -2390.01 5800 3229.43 -2379.07 5800 1941.67 -2366.11 5800 
3241.92 -2366.07 5800 1941.95 -2353.11 5800 3247.93 -2359.82 5800 
3251.96 -2353.07 5800 1942.24 -2340.11 5800 3255.1 -2340.07 5800 
1942.52 -2327.11 5800 3256.05 -2327.07 5800 1942.81 -2314.11 5800 
3257 -2314.07 5800 1942.89 -2310.34 5800 1943.09 -2301.11 5800 
3257.95 -2301.06 5800 1943.38 -2288.11 5800 3258.9 -2288.06 5800 
1943.66 -2275.11 5800 3259.85 -2275.06 5800 1943.94 -2262.11 5800 
3260.79 -2262.06 5800 1944.23 -2249.11 5800 3261.74 -2249.06 5800 
1944.7 -2236.1 5800 3262.69 -2236.06 5800 1945.16 -2223.1 5800 
3263.64 -2223.06 5800 1945.61 -2210.1 5800 3264.59 -2210.06 5800 
1946.07 -2197.1 5800 3265.54 -2197.06 5800 1946.53 -2184.1 5800 
3266.49 -2184.06 5800 1947 -2171.1 5800 3267.44 -2171.05 5800 
1947.47 -2158.1 5800 3268.39 -2158.05 5800 1947.94 -2145.1 5800 
3269.34 -2145.05 5800 1948.4 -2132.1 5800 3270.28 -2132.05 5800 
1948.87 -2119.1 5800 3271.23 -2119.05 5800 1949.34 -2106.09 5800 
3272.18 -2106.05 5800 1949.81 -2093.09 5800 3273.13 -2093.05 5800 
1950.27 -2080.09 5800 3274.08 -2080.05 5800 1950.74 -2067.09 5800 
3275.03 -2067.05 5800 1951.21 -2054.09 5800 3275.98 -2054.04 5800 
1951.67 -2041.09 5800 3276.93 -2041.04 5800 1951.13 -2028.09 5800 
3276.96 -2040.66 5800 3277.69 -2028.04 5800 1948.08 -2015.09 5800 
3278.43 -2015.04 5800 1945.03 -2002.09 5800 3279.16 -2002.04 5800 
1941.98 -1989.09 5800 1942.91 -1993.05 5800 3279.88 -1989.04 5800 
1938.94 -1976.09 5800 3280.58 -1976.04 5800 1935.89 -1963.08 5800 
3281.27 -1963.04 5800 1932.84 -1950.08 5800 3281.95 -1950.04 5800 
1929.79 -1937.08 5800 3282.62 -1937.04 5800 1926.74 -1924.08 5800 
3283.27 -1924.03 5800 1923.69 -1911.08 5800 3283.86 -1911.03 5800 
1920.64 -1898.08 5800 3284.28 -1898.03 5800 1917.6 -1885.08 5800 
3284.7 -1885.03 5800 1914.55 -1872.08 5800 3285.11 -1872.03 5800 
1911.5 -1859.08 5800 1913.92 -1869.41 5800 3285.51 -1859.03 5800 
1908.45 -1846.08 5800 3285.9 -1846.03 5800 1905.4 -1833.08 5800 
3286.28 -1833.03 5800 1902.35 -1820.07 5800 3286.66 -1820.03 5800 
1902.88 -1807.07 5800 3287.02 -1807.03 5800 1903.16 -1794.07 5800 
3287.39 -1794.02 5800 1904.54 -1781.07 5800 3287.74 -1781.02 5800 
1907.89 -1768.07 5800 3288.09 -1768.02 5800 1911.24 -1755.07 5800 
3288.43 -1755.02 5800 1913.93 -1744.6 5800 1914.59 -1742.07 5800 
3288.76 -1742.02 5800 1917.94 -1729.07 5800 3289.15 -1729.02 5800 
1921.29 -1716.07 5800 3289.32 -1716.02 5800 1924.64 -1703.06 5800 
3289.49 -1703.02 5800 1927.98 -1690.06 5800 3289.66 -1690.02 5800 
1931.33 -1677.06 5800 3289.83 -1677.02 5800 1934.68 -1664.06 5800 
3290 -1664.01 5800 1938.03 -1651.06 5800 3290.17 -1651.01 5800 
1941.38 -1638.06 5800 3290.34 -1638.01 5800 1942.94 -1632.02 5800 
1944.73 -1625.06 5800 3290.51 -1625.01 5800 1948.08 -1612.06 5800 
3290.68 -1612.01 5800 1951.43 -1599.06 5800 3290.85 -1599.01 5800 
1954.78 -1586.05 5800 3288.43 -1586.01 5800 1958.13 -1573.05 5800 
3284.01 -1573.01 5800 1961.48 -1560.05 5800 3280.14 -1560.01 5800 
1964.87 -1547.05 5800 3277.95 -1547.01 5800 1968.23 -1534.05 5800 
3277.73 -1534.01 5800 1971.54 -1521.05 5800 3278.31 -1521 5800 
1971.95 -1519.52 5800 1975.12 -1508.05 5800 3278.8 -1508 5800 
1978.54 -1495.05 5800 3279.22 -1495 5800 1980.02 -1482.05 5800 
3279.59 -1482 5800 1981.17 -1469.04 5800 3279.92 -1469 5800 
1982.32 -1456.04 5800 3280.2 -1456 5800 1983.47 -1443.04 5800 
3280.46 -1443 5800 1984.62 -1430.04 5800 3280.69 -1430 5800 
1985.77 -1417.04 5800 3281.1 -1417 5800 1986.92 -1404.04 5800 
3281.51 -1403.99 5800 1988.06 -1391.04 5800 3281.92 -1390.99 5800 
1989.21 -1378.04 5800 3282.33 -1377.99 5800 1990.36 -1365.04 5800 
3282.74 -1364.99 5800 1991.51 -1352.04 5800 3283.15 -1351.99 5800 
1992.66 -1339.03 5800 3283.55 -1338.99 5800 1993.75 -1326.03 5800 
3283.96 -1325.99 5800 1994.55 -1313.03 5800 3284.37 -1312.99 5800 
1995.33 -1300.03 5800 3284.78 -1299.99 5800 1996.11 -1287.03 5800 
3285.19 -1286.99 5800 1996.9 -1274.03 5800 3285.6 -1273.98 5800 
1997.68 -1261.03 5800 3286 -1260.98 5800 1998.46 -1248.03 5800 
3286.41 -1247.98 5800 1999.24 -1235.03 5800 3286.82 -1234.98 5800 
2000.02 -1222.03 5800 3287.23 -1221.98 5800 2000.8 -1209.02 5800 
3287.64 -1208.98 5800 2000.98 -1206.11 5800 2001.58 -1196.02 5800 
3288.05 -1195.98 5800 2002.36 -1183.02 5800 3288.45 -1182.98 5800 
2003.14 -1170.02 5800 3288.89 -1169.98 5800 2003.93 -1157.02 5800 
3289.35 -1156.98 5800 2004.71 -1144.02 5800 3289.82 -1143.97 5800 
2005.49 -1131.02 5800 3290.29 -1130.97 5800 2006.14 -1118.02 5800 
3290.76 -1117.97 5800 2006.63 -1105.02 5800 3291.27 -1104.97 5800 
2007.68 -1092.01 5800 3291.76 -1091.97 5800 2008.73 -1079.01 5800 
3291.72 -1078.97 5800 2011.92 -1066.01 5800 3291.7 -1065.97 5800 
2015.78 -1053.01 5800 3291.71 -1052.97 5800 2018.47 -1040.01 5800 
3291.73 -1039.97 5800 2021.28 -1027.01 5800 3291.74 -1026.97 5800 
2024.22 -1014.01 5800 3291.75 -1013.96 5800 2027.3 -1001.01 5800 
3291.76 -1000.96 5800 2029.99 -990.125 5800 2030.32 -988.006 5800 
3291.9 -987.962 5800 2032.32 -975.005 5800 2556.82 -974.987 5800 
2581.01 -979.273 5800 2601.48 -974.985 5800 3292.06 -974.961 5800 
2034.33 -962.004 5800 2532.17 -961.987 5800 2552.01 -974.284 5800 
2610.02 -972.778 5800 2639.02 -968.325 5800 2668.02 -963.873 5800 
2680.33 -961.982 5800 3292.22 -961.961 5800 2036.33 -949.003 5800 
2513.76 -948.986 5800 2523.01 -954.726 5800 2697.02 -959.434 5800 
2726.02 -955.551 5800 2755.02 -951.486 5800 2756.58 -948.978 5800 
3291.66 -948.959 5800 2038.33 -936.002 5800 2492.78 -935.986 5800 
2494.01 -936.737 5800 2762.98 -935.977 5800 3290.1 -935.959 5800 
2040.03 -923.001 5800 2470.79 -922.986 5800 2769.24 -922.976 5800 
3288.87 -922.958 5800 2041.81 -910 5800 2448.81 -909.986 5800 
2465.01 -919.57 5800 2775.6 -909.974 5800 3286.88 -909.957 5800 
2043.64 -896.999 5800 2426.83 -896.985 5800 2436.01 -902.418 5800 
2781.95 -896.973 5800 3284.13 -896.956 5800 2045.53 -883.997 5800 
2406.13 -883.985 5800 2407.01 -885.266 5800 2784.03 -892.722 5800 
2788.44 -883.972 5800 3281.38 -883.955 5800 2047.49 -870.996 5800 
[...]
POINT_DATA 6480
SCALARS Pressure double
LOOKUP_TABLE default
3.0932710339 3.0932710339 3.0932710339 3.0932710339 3.0932710339 3.0932710339 3.0932710339 3.0932710339 3.0932710339 
3.0932710339 3.0932710339 3.0932710339 3.0932710339 3.0932710339 3.0932710339 3.0932710339 3.0932710339 3.0932710339 
3.0932710339 3.0932710339 3.0932710339 3.0932710339 3.0932710339 3.0932710339 3.0932710339 3.0932710339 3.0932710339 
3.0932710339 3.0932710339 3.0932710339 3.0932710339 3.0932710339 3.0932710339 3.0932710339 3.0932710339 3.0932710339 
3.0932710339 3.0932710339 3.0932710339 3.0932710339 3.0932710339 3.0932710339 3.0932710339 3.0932710339 3.0932710339 
3.0932710339 3.0932710339 3.0932710339 3.0932710339 3.0932710339 3.0932710339 3.0932710339 3.0932710339 3.0932710339 
3.0932710339 3.0932710339 3.0932710339 3.0932710339 3.0932710339 3.0932710339 3.0932710339 3.0932710339 3.0932710339 
3.0932710339 3.0932710339 3.0932710339 3.0932710339 3.0932710339 3.0932710339 3.0932710339 3.0932710339 3.0932710339 
3.0932710339 3.0932710339 3.0932710339 3.0932710339 3.0932710339 3.0932710339 3.0932710339 3.0932710339 3.0932710339 
3.0932710339 3.0932710339 3.0932710339 3.0932710339 3.0932710339 3.0932710339 3.0932710339 3.0932710339 3.0932710339 
3.0932710339 3.0932710339 3.0932710339 3.0932710339 3.0932710339 3.0932710339 3.0932710339 3.0932710339 3.0932710339 
3.0932710339 3.0932710339 3.0932710339 3.0932710339 3.0932710339 3.0932710339 3.0932710339 3.0932710339 3.0932710339 
3.0932710339 3.0932710339 3.0932710339 3.0932710339 3.0932710339 3.0932710339 3.0932710339 3.0932710339 3.0932710339 
3.0932710339 3.0932710339 3.0932710339 3.0932710339 3.0932710339 3.0932710339 3.0932710339 3.0932710339 3.0932710339 
3.0932710339 3.0932710339 3.0932710339 3.0932710339 3.0932710339 3.0932710339 3.0932710339 3.0932710339 3.0932710339 
3.0932710339 3.0932710339 3.0932710339 3.0932710339 3.0932710339 3.0932710339 3.0932710339 3.0932710339 3.0932710339 
3.0932710339 3.0932710339 3.0932710339 3.0932710339 3.0932710339 3.0932710339 3.0932710339 3.0932710339 3.0932710339 
3.0932710339 3.0932710339 3.0932710339 3.0932710339 3.0932710339 3.0932710339 3.0932710339 3.0932710339 3.0932710339 
3.0932710339 3.0932710339 3.0932710339 3.0932710339 3.0932710339 3.0932710339 3.0932710339 3.0932710339 3.0932710339 
3.0932710339 3.0932710339 3.0932710339 3.0932710339 3.0932710339 3.0932710339 3.0932710339 3.0932710339 3.0932710339 
3.0932710339 3.0932710339 3.0932710339 3.0932710339 3.0932710339 3.0932710339 3.0932710339 3.0932710339 3.0932710339 
3.0932710339 3.0932710339 3.0932710339 3.0932710339 3.0932710339 3.0932710339 3.0932710339 3.0932710339 3.0932710339 
3.0932710339 3.0932710339 3.0932710339 3.0932710339 3.0932710339 3.0932710339 3.0932710339 3.0932710339 3.0932710339 
3.0932710339 3.0932710339 3.0932710339 3.0932710339 3.0932710339 3.0932710339 3.0932710339 3.0932710339 3.0932710339 
3.0932710339 3.0932710339 3.0932710339 3.0932710339 3.0932710339 3.0932710339 3.0932710339 3.0932710339 3.0932710339 
3.0932710339 3.0932710339 3.0932710339 3.0932710339 3.0932710339 3.0932710339 3.0932710339 3.0932710339 3.0932710339 
3.0932710339 3.0932710339 3.0932710339 3.0932710339 3.0932710339 3.0932710339 3.0932710339 3.0932710339 3.0932710339 
3.0932710339 3.0932710339 3.0932710339 3.0932710339 3.0932710339 3.0932710339 3.0932710339 3.0932710339 3.0932710339 
3.0932710339 3.0932710339 3.0932710339 3.0932710339 3.0932710339 3.0932710339 3.0932710339 3.0932710339 3.0932710339 
3.0932710339 3.0932710339 3.0932710339 3.0932710339 3.0932710339 3.0932710339 3.0932710339 3.0932710339 3.0932710339 
3.0932710339 3.0932710339 3.0932710339 3.0932710339 3.0932710339 3.0932710339 3.0932710339 3.0932710339 3.0932710339 
3.0932710339 3.0932710339 3.0932710339 3.0932710339 3.0932710339 3.0932710339 3.0932710339 3.0932710339 3.0932710339 
3.0932710339 3.0932710339 3.0932710339 3.0932710339 3.0932710339 3.0932710339 3.0932710339 3.0932710339 3.0932710339 
3.0932710339 3.0932710339 3.0932710339 3.0932710339 3.0932710339 3.0932710339 3.0932710339 3.0932710339 3.0932710339 
3.0932710339 3.0932710339 3.0932710339 3.0932710339 3.0932710339 3.0932710339 3.0932710339 3.0932710339 3.0932710339 
3.0932710339 3.0932710339 3.0932710339 3.0932710339 3.0932710339 3.0932710339 3.0932710339 3.0932710339 3.0932710339 
3.0932710339 3.0932710339 3.0932710339 3.0932710339 3.0932710339 3.0932710339 3.0932710339 3.0932710339 3.0932710339 
3.0932710339 3.0932710339 3.0932710339 3.0932710339 3.0932710339 3.0932710339 3.0932710339 3.0932710339 3.0932710339 
3.0932710339 3.0932710339 3.0932710339 3.0932710339 3.0932710339 3.0932710339 3.0932710339 3.0932710339 3.0932710339 
3.0932710339 3.0932710339 3.0932710339 3.0932710339 3.0932710339 3.0932710339 3.0932710339 3.0932710339 3.0932710339 
3.0932710339 3.0932710339 3.0932710339 3.0932710339 3.0932710339 3.0932710339 3.0932710339 3.0932710339 3.0932710339 
3.0932710339 3.0932710339 3.0932710339 3.0932710339 3.0932710339 3.0932710339 3.0932710339 3.0932710339 3.0932710339 
3.0932710339 3.0932710339 3.0932710339 3.0932710339 3.0932710339 3.0932710339 3.0932710339 3.0932710339 3.0932710339 
3.0932710339 3.0932710339 3.0932710339 3.0932710339 3.0932710339 3.0932710339 3.0932710339 3.0932710339 3.0932710339 
3.0932710339 3.0932710339 3.0932710339 3.0932710339 3.0932710339 3.1078652246 3.1078652246 3.1078652246 3.0932710339 
3.0932710339 3.1078652246 3.1078652246 3.1078652246 3.1078652246 3.1078652246 3.1078652246 3.0932710339 3.0932710339 
3.1078652246 3.1078652246 3.1078652246 3.1078652246 3.1078652246 3.1078652246 3.0932710339 3.0932710339 3.1078652246 
3.1078652246 3.1078652246 3.0932710339 3.0932710339 3.1078652246 3.1078652246 3.0932710339 3.0932710339 3.1078652246 
3.1078652246 3.1078652246 3.0932710339 3.0932710339 3.1078652246 3.1078652246 3.1078652246 3.0932710339 3.0932710339 
3.1078652246 3.1078652246 3.1078652246 3.1078652246 3.0932710339 3.0932710339 3.1078652246 3.1078652246 3.0932710339 
3.0932710339 3.1078652246 3.1078652246 3.0932710339 3.0932710339 3.0932710339 3.1078652246 3.1078652246 3.0932710339 
3.0932710339 3.1078652246 3.1078652246 3.1078652246 3.0932710339 3.0932710339 3.1078652246 3.1078652246 3.1078652246 
3.0932710339 3.0932710339 3.1078652246 3.1078652246 3.0932710339 3.0932710339 3.0932710339 3.1078652246 3.1078652246 
3.0932710339 3.0932710339 3.1078652246 3.1078652246 3.1078652246 3.1078652246 3.0932710339 3.0932710339 3.1078652246 
3.1078652246 3.0932710339 3.0932710339 3.1078652246 3.1078652246 3.1078652246 3.0932710339 3.0932710339 3.1078652246 
3.1078652246 3.1078652246 3.0932710339 3.0932710339 3.1078652246 3.1078652246 3.0932710339 3.0932710339 3.0932710339 
3.1078652246 3.1078652246 3.0932710339 3.0932710339 3.1078652246 3.1078652246 3.1078652246 3.0932710339 3.0932710339 
3.1078652246 3.1078652246 3.0932710339 3.0932710339 3.1078652246 3.1078652246 3.0932710339 3.0932710339 3.1078652246 
3.1078652246 3.0932710339 3.0932710339 3.1078652246 3.1078652246 3.1078652246 3.0932710339 3.0932710339 3.1078652246 
3.1078652246 3.0932710339 3.0932710339 3.1078652246 3.1078652246 3.1078652246 3.0932710339 3.0932710339 3.1078652246 
3.1224594153 3.1224594153 3.1224594153 3.1224594153 3.1078652246 3.0932710339 3.0932710339 3.1078652246 3.1224594153 
3.1224594153 3.1224594153 3.1224594153 3.1078652246 3.0932710339 3.0932710339 3.0932710339 3.1078652246 3.1224594153 
3.1224594153 3.1224594153 3.1224594153 3.1078652246 3.0932710339 3.0932710339 3.1078652246 3.1224594153 3.1224594153 
3.1224594153 3.1078652246 3.0932710339 3.0932710339 3.1078652246 3.1224594153 3.1224594153 3.1224594153 3.1224594153 
3.1078652246 3.1078652246 3.0932710339 3.0932710339 3.1078652246 3.1224594153 3.1224594153 3.1078652246 3.0932710339 
3.0932710339 3.1078652246 3.1078652246 3.1224594153 3.1224594153 3.1224594153 3.1224594153 3.1078652246 3.0932710339 
3.0932710339 3.1078652246 3.1224594153 3.1224594153 3.1078652246 3.0932710339 3.0932710339 3.0932710339 3.1078652246 
3.1224594153 3.1224594153 3.1224594153 3.1078652246 3.0932710339 3.0932710339 3.1078652246 3.1224594153 3.1224594153 
3.1224594153 3.1078652246 3.1078652246 3.0932710339 3.0786768432 3.0786768432 3.0786768432 3.0786768432 3.0932710339 
3.1078652246 3.1224594153 3.1224594153 3.1078652246 3.0932710339 3.0786768432 3.0786768432 3.0786768432 3.0932710339 
3.1078652246 3.1224594153 3.1224594153 3.1224594153 3.1078652246 3.0932710339 3.0786768432 3.0786768432 3.0786768432 
3.0786768432 3.0786768432 3.0786768432 3.0786768432 3.0786768432 3.0786768432 3.0786768432 3.0786768432 3.0932710339 
3.1078652246 3.1078652246 3.1224594153 3.1224594153 3.1078652246 3.0932710339 3.0786768432 3.0786768432 3.0786768432 
3.0786768432 3.0786768432 3.0786768432 3.0786768432 3.0932710339 3.1078652246 3.1224594153 3.1224594153 3.1224594153 
3.1078652246 3.0932710339 3.0786768432 3.0786768432 3.0786768432 3.0786768432 3.0786768432 3.0786768432 3.0786768432 
3.0932710339 3.1078652246 3.1224594153 3.1224594153 3.1224594153 3.1078652246 3.1078652246 3.0932710339 3.0786768432 
3.0786768432 3.0786768432 3.0786768432 3.0786768432 3.0786768432 3.0932710339 3.0932710339 3.1078652246 3.1224594153 
3.137053606 3.137053606 3.137053606 3.1224594153 3.1078652246 3.0932710339 3.0786768432 3.0786768432 3.0786768432 
3.0786768432 3.0786768432 3.0786768432 3.0932710339 3.1078652246 3.1224594153 3.137053606 3.137053606 3.137053606 
3.137053606 3.1224594153 3.1078652246 3.0932710339 3.0786768432 3.0786768432 3.0786768432 3.0786768432 3.0786768432 
3.0786768432 3.0932710339 3.1078652246 3.1224594153 3.1224594153 3.137053606 3.137053606 3.137053606 3.137053606 
3.1224594153 3.1078652246 3.0932710339 3.0786768432 3.0786768432 3.0786768432 3.0786768432 3.0786768432 3.0932710339 
3.1078652246 3.1224594153 3.137053606 3.137053606 3.137053606 3.1224594153 3.1224594153 3.1078652246 3.0932710339 
3.0786768432 3.0786768432 3.0786768432 3.0786768432 3.0786768432 3.0786768432 3.0932710339 3.1078652246 3.1224594153 
3.137053606 3.137053606 3.137053606 3.1224594153 3.1078652246 3.1078652246 3.0932710339 3.0786768432 3.0786768432 
3.0786768432 3.0786768432 3.0786768432 3.0786768432 3.0786768432 3.0932710339 3.1078652246 3.1224594153 3.137053606 
3.137053606 3.137053606 3.137053606 3.1224594153 3.1078652246 3.0932710339 3.0786768432 3.0786768432 3.0786768432 
3.0786768432 3.0786768432 3.0932710339 3.1078652246 3.1224594153 3.137053606 3.137053606 3.1224594153 3.1078652246 
3.0932710339 3.0786768432 3.0786768432 3.0786768432 3.0786768432 3.0786768432 3.0786768432 3.0932710339 3.1078652246 
3.1224594153 3.1224594153 3.137053606 3.137053606 3.1224594153 3.1224594153 3.1078652246 3.0932710339 3.0786768432 
3.0786768432 3.0786768432 3.0786768432 3.0932710339 3.1078652246 3.1224594153 3.137053606 3.137053606 3.137053606 
3.1224594153 3.1078652246 3.0932710339 3.0786768432 3.0786768432 3.0786768432 3.0786768432 3.0786768432 3.0786768432 
3.0932710339 3.1078652246 3.1224594153 3.137053606 3.137053606 3.137053606 3.1224594153 3.1078652246 3.0932710339 
3.0786768432 3.0786768432 3.0786768432 3.0786768432 3.0786768432 3.0786768432 3.0932710339 3.1078652246 3.1224594153 
3.137053606 3.137053606 3.1224594153 3.1078652246 3.0932710339 3.0932710339 3.0786768432 3.0786768432 3.0786768432 
3.0786768432 3.0932710339 3.1078652246 3.1224594153 3.137053606 3.137053606 3.1516477967 3.1516477967 3.1516477967 
3.137053606 3.1224594153 3.1078652246 3.0932710339 3.0932710339 3.0786768432 3.0786768432 3.0786768432 3.0786768432 
3.0786768432 3.0786768432 3.0932710339 3.1078652246 3.1078652246 3.1224594153 3.137053606 3.1516477967 3.1516477967 
3.1516477967 3.1516477967 3.137053606 3.1224594153 3.1224594153 3.1078652246 3.1078652246 3.0932710339 3.0786768432 
3.0786768432 3.0786768432 3.0786768432 3.0932710339 3.1078652246 3.1224594153 3.1224594153 3.137053606 3.1516477967 
3.1516477967 3.1516477967 3.1516477967 3.137053606 3.137053606 3.1224594153 3.1078652246 3.0932710339 3.0786768432 
3.0786768432 3.0786768432 3.0786768432 3.0786768432 3.0932710339 3.1078652246 3.1224594153 3.137053606 3.1516477967 
3.1516477967 3.1516477967 3.137053606 3.1224594153 3.1078652246 3.0932710339 3.0786768432 3.0786768432 3.0786768432 
3.0786768432 3.0932710339 3.1078652246 3.1224594153 3.137053606 3.137053606 3.1516477967 3.1516477967 3.1516477967 
3.137053606 3.1224594153 3.1078652246 3.0932710339 3.0786768432 3.0786768432 3.0786768432 3.0786768432 3.0932710339 
3.1078652246 3.1224594153 3.137053606 3.1516477967 3.1516477967 3.137053606 3.1224594153 3.1078652246 3.0932710339 
3.0786768432 3.0786768432 3.0786768432 3.0640826525 3.0640826525 3.0640826525 3.0640826525 3.0640826525 3.0786768432 
3.0786768432 3.0932710339 3.1078652246 3.1224594153 3.137053606 3.1516477967 3.1516477967 3.1516477967 3.1516477967 
3.137053606 3.137053606 3.1224594153 3.1078652246 3.0932710339 3.0786768432 3.0786768432 3.0786768432 3.0786768432 
3.0786768432 3.0640826525 3.0640826525 3.0640826525 3.0640826525 3.0640826525 3.0640826525 3.0786768432 3.0932710339 
3.1078652246 3.1224594153 3.1224594153 3.137053606 3.137053606 3.1516477967 3.1516477967 3.137053606 3.1224594153 
3.1078652246 3.0932710339 3.0786768432 3.0786768432 3.0786768432 3.0640826525 3.0640826525 3.0786768432 3.0932710339 
3.1078652246 3.1224594153 3.137053606 3.1516477967 3.1516477967 3.1516477967 3.137053606 3.1224594153 3.1078652246 
3.0932710339 3.0786768432 3.0786768432 3.0786768432 3.0640826525 3.0640826525 3.0640826525 3.0786768432 3.0932710339 
3.1078652246 3.1224594153 3.137053606 3.1516477967 3.1516477967 3.137053606 3.1224594153 3.1078652246 3.0932710339 
3.0786768432 3.0786768432 3.0786768432 3.0786768432 3.0640826525 3.0640826525 3.0640826525 3.0786768432 3.0932710339 
3.1078652246 3.1224594153 3.137053606 3.137053606 3.1516477967 3.1516477967 3.1662419875 3.1662419875 3.1662419875 
3.1662419875 3.1662419875 3.1516477967 3.137053606 3.1224594153 3.1078652246 3.0932710339 3.0786768432 3.0786768432 
3.0786768432 3.0786768432 3.0786768432 3.0640826525 3.0640826525 3.0640826525 3.0786768432 3.0932710339 3.1078652246 
3.1224594153 3.137053606 3.1516477967 3.1662419875 3.1662419875 3.1662419875 3.1516477967 3.137053606 3.1224594153 
3.1078652246 3.0932710339 3.0786768432 3.0786768432 3.0786768432 3.0640826525 3.0640826525 3.0786768432 3.0932710339 
3.1078652246 3.1224594153 3.137053606 3.1516477967 3.1662419875 3.1662419875 3.1662419875 3.1516477967 3.137053606 
3.1224594153 3.1078652246 3.1078652246 3.0932710339 3.0786768432 3.0786768432 3.0786768432 3.0786768432 3.0786768432 
3.0786768432 3.0786768432 3.0786768432 3.0786768432 3.0786768432 3.0640826525 3.0494884618 3.0494884618 3.0494884618 
3.0640826525 3.0786768432 3.0786768432 3.0932710339 3.1078652246 3.1078652246 3.1224594153 3.1224594153 3.137053606 
3.1516477967 3.1516477967 3.1662419875 3.1662419875 3.1662419875 3.1516477967 3.137053606 3.1224594153 3.1078652246 
3.0932710339 3.0786768432 3.0786768432 3.0786768432 3.0786768432 3.0640826525 3.0640826525 3.0494884618 3.0494884618 
3.0494884618 3.0494884618 3.0494884618 3.0640826525 3.0640826525 3.0786768432 3.0932710339 3.1078652246 3.1224594153 
3.137053606 3.137053606 3.1516477967 3.1662419875 3.1662419875 3.1516477967 3.137053606 3.1224594153 3.1078652246 
3.0932710339 3.0932710339 3.0786768432 3.0640826525 3.0640826525 3.0640826525 3.0786768432 3.0786768432 3.0640826525 
3.0494884618 3.0494884618 3.0494884618 3.0640826525 3.0786768432 3.0932710339 3.1078652246 3.1224594153 3.137053606 
3.1516477967 3.1662419875 3.1662419875 3.1662419875 3.1662419875 3.1516477967 3.137053606 3.1224594153 3.1078652246 
3.0932710339 3.0786768432 3.0786768432 3.0640826525 3.0640826525 3.0640826525 3.0640826525 3.0786768432 3.0786768432 
3.0786768432 3.0640826525 3.0494884618 3.0494884618 3.0494884618 3.0640826525 3.0786768432 3.0932710339 3.1078652246 
3.1224594153 3.137053606 3.1516477967 3.1516477967 3.1662419875 3.1662419875 3.1516477967 3.137053606 3.137053606 
3.1224594153 3.1078652246 3.0932710339 3.0786768432 3.0640826525 3.0640826525 3.0640826525 3.0640826525 3.0786768432 
3.0786768432 3.0640826525 3.0494884618 3.0348942711 3.0348942711 3.0348942711 3.0494884618 3.0640826525 3.0786768432 
3.0932710339 3.1078652246 3.1224594153 3.137053606 3.1516477967 3.1662419875 3.1662419875 2.9473291268 2.9473291268 
2.9619233175 2.9619233175 2.9765175082 2.9765175082 2.991111699 2.991111699 3.0057058897 3.0057058897 3.0203000804 
3.0203000804 3.0348942711 3.0348942711 3.0494884618 3.0494884618 3.0640826525 3.0640826525 3.0786768432 3.0786768432 
3.0932710339 3.0932710339 3.1078652246 3.1078652246 3.1224594153 3.1224594153 3.137053606 3.137053606 3.1516477967 
3.1516477967 3.1662419875 3.1662419875 2.9473291268 2.9619233175 2.9765175082 2.991111699 3.0057058897 3.0203000804 
3.0348942711 3.0494884618 3.0640826525 3.0786768432 3.0932710339 3.1078652246 3.1224594153 3.137053606 3.1516477967 
3.1662419875 2.9473291268 2.9619233175 2.9765175082 2.991111699 3.0057058897 3.0203000804 3.0348942711 3.0494884618 
3.0640826525 3.0786768432 3.0932710339 3.1078652246 3.1224594153 3.137053606 3.1516477967 3.1662419875 2.9473291268 
2.9619233175 2.9765175082 2.991111699 3.0057058897 3.0203000804 3.0348942711 3.0494884618 3.0640826525 3.0786768432 
3.0932710339 3.1078652246 3.1224594153 3.137053606 3.1516477967 3.1662419875 3.1662419875 3.1516477967 3.137053606 
3.1224594153 3.1078652246 3.0932710339 3.0786768432 3.0640826525 3.0640826525 3.0640826525 3.0786768432 3.0786768432 
3.0786768432 3.0640826525 3.0494884618 3.0348942711 3.0348942711 3.0348942711 3.0348942711 3.0494884618 3.0494884618 
3.0640826525 3.0786768432 3.0932710339 3.1078652246 3.1224594153 3.1224594153 3.137053606 3.137053606 2.9473291268 
2.9473291268 2.9619233175 2.9619233175 2.9765175082 2.9765175082 2.991111699 2.991111699 3.0057058897 3.0057058897 
3.0203000804 3.0203000804 3.0348942711 3.0348942711 3.0494884618 3.0494884618 3.0640826525 3.0640826525 3.0786768432 
3.0786768432 3.0932710339 3.0932710339 3.1078652246 3.1078652246 3.1224594153 3.1224594153 3.137053606 3.137053606 
3.1516477967 2.9473291268 2.9619233175 2.9765175082 2.991111699 3.0057058897 3.0203000804 3.0348942711 3.0494884618 
3.0640826525 3.0786768432 3.0932710339 3.1078652246 3.1224594153 3.137053606 3.1516477967 2.9473291268 2.9619233175 
2.9765175082 2.991111699 3.0057058897 3.0203000804 3.0348942711 3.0494884618 3.0640826525 3.0786768432 3.0932710339 
3.1078652246 3.1224594153 3.137053606 3.1516477967 3.1662419875 2.9473291268 2.9619233175 2.9765175082 2.991111699 
3.0057058897 3.0203000804 3.0348942711 3.0494884618 3.0640826525 3.0786768432 3.0932710339 3.1078652246 3.1224594153 
3.137053606 3.1516477967 3.1662419875 2.9473291268 2.9619233175 2.9765175082 2.991111699 3.0057058897 3.0203000804 
3.0348942711 3.0494884618 3.0640826525 3.0786768432 3.0932710339 3.1078652246 3.1224594153 3.137053606 3.1516477967 
3.1662419875 2.9473291268 2.9619233175 2.9765175082 2.991111699 3.0057058897 3.0203000804 3.0348942711 3.0494884618 
3.0640826525 3.0786768432 3.0932710339 3.1078652246 3.1224594153 3.137053606 3.1516477967 3.1662419875 2.9473291268 
2.9619233175 2.9765175082 2.991111699 3.0057058897 3.0203000804 3.0348942711 3.0494884618 3.0640826525 3.0786768432 
3.0932710339 3.1078652246 3.1224594153 3.137053606 3.1516477967 3.1662419875 2.9473291268 2.9619233175 2.9765175082 
2.991111699 3.0057058897 3.0203000804 3.0348942711 3.0494884618 3.0640826525 3.0786768432 3.0932710339 3.1078652246 
3.1224594153 3.137053606 3.1516477967 3.1662419875 2.9473291268 2.9619233175 2.9765175082 2.991111699 3.0057058897 
3.0203000804 3.0348942711 3.0494884618 3.0640826525 3.0786768432 3.0932710339 3.1078652246 3.1224594153 3.137053606 
3.1516477967 2.9473291268 2.9619233175 2.9765175082 2.991111699 3.0057058897 3.0203000804 3.0348942711 3.0494884618 
3.0640826525 3.0786768432 3.0932710339 3.1078652246 3.1224594153 3.137053606 3.1516477967 2.9473291268 2.9619233175 