# vtk DataFile Version 4.2
vtk output
ASCII
DATASET POLYDATA
POINTS 7147 float
1512.64 -3621.17 0 1516.83 -3624.07 0 1522.45 -3621.17 0 
1492.82 -3604.17 0 1553.83 -3604.98 0 1555.4 -3604.17 0 
1478.79 -3587.17 0 1479.83 -3588.88 0 1588.35 -3587.17 0 
1468.41 -3570.17 0 1590.83 -3585.89 0 1621.3 -3570.17 0 
1458.04 -3553.17 0 1627.83 -3566.8 0 1654.25 -3553.16 0 
1447.67 -3536.17 0 1664.84 -3547.7 0 1687.2 -3536.16 0 
1437.29 -3519.17 0 1442.83 -3528.24 0 1701.84 -3528.61 0 
1720.15 -3519.16 0 1426.92 -3502.17 0 1738.84 -3509.52 0 
1753.1 -3502.16 0 1416.55 -3485.17 0 1775.84 -3490.42 0 
1786.05 -3485.16 0 1406.17 -3468.17 0 1812.84 -3471.33 0 
1819 -3468.15 0 1395.8 -3451.17 0 1405.83 -3467.61 0 
1849.85 -3452.24 0 1851.95 -3451.15 0 1385.43 -3434.16 0 
1884.9 -3434.15 0 1375.05 -3417.16 0 1886.85 -3433.14 0 
1917.85 -3417.15 0 1364.68 -3400.16 0 1368.84 -3406.98 0 
1923.85 -3414.05 0 1950.8 -3400.15 0 1354.31 -3383.16 0 
1960.85 -3394.96 0 1983.75 -3383.15 0 1343.93 -3366.16 0 
1997.86 -3375.87 0 2016.7 -3366.14 0 1333.56 -3349.16 0 
2034.86 -3356.77 0 2049.65 -3349.14 0 1323.19 -3332.16 0 
1331.84 -3346.34 0 2071.86 -3337.68 0 2082.6 -3332.14 0 
1312.81 -3315.16 0 2108.86 -3318.59 0 2115.55 -3315.14 0 
1302.44 -3298.16 0 2145.86 -3299.49 0 2148.49 -3298.14 0 
1292.06 -3281.16 0 1294.84 -3285.71 0 2181.44 -3281.13 0 
1281.69 -3264.16 0 2182.87 -3280.4 0 2214.39 -3264.13 0 
1271.32 -3247.16 0 2219.87 -3261.31 0 2247.34 -3247.13 0 
1260.94 -3230.16 0 2256.87 -3242.21 0 2280.29 -3230.13 0 
1250.57 -3213.16 0 1257.84 -3225.08 0 2293.87 -3223.12 0 
2313.24 -3213.13 0 1240.2 -3196.15 0 2330.87 -3204.03 0 
2349.07 -3196.12 0 1229.82 -3179.15 0 2367.88 -3186.19 0 
2371.67 -3179.12 0 1219.45 -3162.15 0 1220.85 -3164.44 0 
2381.73 -3162.12 0 1209.08 -3145.15 0 2386.31 -3145.12 0 
1198.7 -3128.15 0 2390.43 -3128.12 0 1188.33 -3111.15 0 
2394.56 -3111.12 0 1177.96 -3094.15 0 1183.85 -3103.81 0 
2398.68 -3094.12 0 1167.58 -3077.15 0 2402.81 -3077.12 0 
1157.21 -3060.15 0 2404.88 -3068.58 0 2406.93 -3060.11 0 
1146.84 -3043.15 0 1146.85 -3043.17 0 2411.04 -3043.11 0 
1136.46 -3026.15 0 2415.15 -3026.11 0 1126.09 -3009.15 0 
2419.27 -3009.11 0 1115.72 -2992.15 0 2423.39 -2992.11 0 
1105.34 -2975.15 0 1109.85 -2982.54 0 2427.51 -2975.11 0 
1094.97 -2958.14 0 2431.63 -2958.11 0 1084.59 -2941.14 0 
2435.76 -2941.11 0 1074.22 -2924.14 0 2439.88 -2924.11 0 
1036.22 -2907.14 0 1072.86 -2923.52 0 2441.89 -2915.83 0 
2444.01 -2907.1 0 990.908 -2890.14 0 998.857 -2893.35 0 
1035.86 -2907.01 0 2448.12 -2890.1 0 960.042 -2873.14 0 
961.857 -2876.31 0 2452.23 -2873.1 0 950.476 -2856.14 0 
2456.34 -2856.1 0 941.192 -2839.14 0 2460.46 -2839.1 0 
932.177 -2822.14 0 2464.58 -2822.1 0 923.759 -2805.14 0 
924.86 -2807.97 0 2468.7 -2805.1 0 917.14 -2788.14 0 
2472.83 -2788.1 0 910.522 -2771.14 0 2476.96 -2771.1 0 
903.903 -2754.14 0 2478.9 -2763.08 0 2481.08 -2754.09 0 
897.284 -2737.14 0 2485.19 -2737.09 0 890.666 -2720.14 0 
2489.3 -2720.09 0 884.047 -2703.14 0 887.864 -2712.94 0 
2493.42 -2703.09 0 877.428 -2686.13 0 2497.53 -2686.09 0 
870.81 -2669.13 0 2501.65 -2669.09 0 864.191 -2652.13 0 
2505.78 -2652.09 0 857.572 -2635.13 0 2509.9 -2635.09 0 
850.954 -2618.13 0 2514.03 -2618.09 0 844.335 -2601.13 0 
850.869 -2617.91 0 2515.91 -2610.32 0 2518.15 -2601.08 0 
837.716 -2584.13 0 2522.27 -2584.08 0 831.097 -2567.13 0 
2526.38 -2567.08 0 824.479 -2550.13 0 2530.49 -2550.08 0 
817.86 -2533.13 0 2534.61 -2533.08 0 811.242 -2516.13 0 
813.874 -2522.89 0 2538.73 -2516.08 0 804.623 -2499.13 0 
2542.85 -2499.08 0 798.004 -2482.12 0 2546.97 -2482.08 0 
791.386 -2465.12 0 2551.1 -2465.08 0 784.767 -2448.12 0 
2552.92 -2457.56 0 2555.22 -2448.07 0 778.148 -2431.12 0 
2559.34 -2431.07 0 771.53 -2414.12 0 776.878 -2427.86 0 
2563.45 -2414.07 0 764.911 -2397.12 0 2567.57 -2397.07 0 
758.292 -2380.12 0 2571.68 -2380.07 0 751.673 -2363.12 0 
2575.8 -2363.07 0 745.055 -2346.12 0 2579.92 -2346.07 0 
738.436 -2329.12 0 739.883 -2332.83 0 2584.04 -2329.07 0 
731.818 -2312.12 0 2588.17 -2312.07 0 725.199 -2295.12 0 
2589.93 -2304.8 0 2592.29 -2295.06 0 718.58 -2278.11 0 
2596.41 -2278.06 0 711.961 -2261.11 0 2600.53 -2261.06 0 
705.343 -2244.11 0 2604.64 -2244.06 0 698.724 -2227.11 0 
702.887 -2237.81 0 2608.76 -2227.06 0 692.106 -2210.11 0 
2612.87 -2210.06 0 685.718 -2193.11 0 2613.27 -2193.06 0 
681.551 -2176.11 0 2613.49 -2176.06 0 679.193 -2159.11 0 
2613.15 -2159.06 0 676.836 -2142.11 0 2611.65 -2142.06 0 
674.479 -2125.11 0 2610.19 -2125.05 0 672.122 -2108.11 0 
2608.78 -2108.05 0 669.764 -2091.1 0 2607.4 -2091.05 0 
667.407 -2074.1 0 2606.06 -2074.05 0 665.05 -2057.1 0 
665.897 -2063.21 0 2604.76 -2057.05 0 662.693 -2040.1 0 
2603.49 -2040.05 0 660.335 -2023.1 0 2602.25 -2023.05 0 
657.978 -2006.1 0 2601.04 -2006.05 0 655.621 -1989.1 0 
2599.87 -1989.05 0 653.264 -1972.1 0 2598.79 -1972.05 0 
650.906 -1955.1 0 2597.76 -1955.04 0 648.549 -1938.1 0 
2596.73 -1938.04 0 646.192 -1921.1 0 2595.7 -1921.04 0 
643.835 -1904.09 0 2594.66 -1904.04 0 641.477 -1887.09 0 
2593.63 -1887.04 0 639.646 -1870.09 0 2592.6 -1870.04 0 
638.065 -1853.09 0 2591.57 -1853.04 0 636.563 -1836.09 0 
2590.54 -1836.04 0 635.134 -1819.09 0 2589.96 -1826.57 0 
2589.51 -1819.04 0 633.773 -1802.09 0 2588.47 -1802.04 0 
632.476 -1785.09 0 2587.44 -1785.04 0 631.235 -1768.09 0 
2586.41 -1768.03 0 630.078 -1751.09 0 2585.38 -1751.03 0 
628.92 -1734.08 0 2584.35 -1734.03 0 627.762 -1717.08 0 
628.915 -1734.01 0 2583.32 -1717.03 0 626.561 -1700.08 0 
2582.28 -1700.03 0 625.076 -1683.08 0 2581.25 -1683.03 0 
623.591 -1666.08 0 2580.22 -1666.03 0 622.106 -1649.08 0 
2579.19 -1649.03 0 620.621 -1632.08 0 1312.28 -1632.06 0 
1331.94 -1632.4 0 1368.94 -1633.02 0 1405.94 -1633.6 0 
1442.94 -1634.23 0 1479.94 -1634.85 0 1516.94 -1635.46 0 
1553.95 -1636.08 0 1590.95 -1636.69 0 1627.95 -1637.31 0 
1640.01 -1632.05 0 2578.16 -1632.03 0 619.136 -1615.08 0 
1273.55 -1615.06 0 1294.94 -1631.77 0 1664.95 -1615.39 0 
1665.35 -1615.05 0 2577.13 -1615.03 0 617.651 -1598.08 0 
1253.25 -1598.06 0 1257.94 -1603.1 0 1685.8 -1598.05 0 
2576.09 -1598.02 0 616.167 -1581.08 0 1237.43 -1581.06 0 
1701.95 -1584.61 0 1706.24 -1581.05 0 2575.06 -1581.02 0 
614.682 -1564.08 0 1221.61 -1564.06 0 1726.68 -1564.05 0 
2574.03 -1564.02 0 -481.105 -1561.13 0 -510.489 -1547.1 0 
-444.104 -1557.39 0 -411.402 -1547.1 0 613.197 -1547.07 0 
1205.78 -1547.06 0 1220.94 -1563.34 0 1738.96 -1553.84 0 
1747.12 -1547.04 0 2573.92 -1547.02 0 -518.105 -1543.47 0 
-546.107 -1530.1 0 -407.102 -1545.75 0 -370.1 -1534.11 0 
-357.366 -1530.1 0 609.568 -1530.07 0 1189.96 -1530.06 0 
1767.56 -1530.04 0 2575.06 -1530.02 0 -555.105 -1525.81 0 
-581.724 -1513.1 0 -333.099 -1522.46 0 -303.33 -1513.1 0 
606.463 -1513.07 0 1174.14 -1513.06 0 1183.94 -1523.59 0 
1775.96 -1523.06 0 1788.01 -1513.04 0 2576.2 -1513.02 0 
-592.105 -1508.15 0 -617.342 -1496.1 0 -296.097 -1510.82 0 
-259.095 -1499.18 0 -249.294 -1496.09 0 603.97 -1496.07 0 
1158.32 -1496.06 0 1808.45 -1496.04 0 2577.33 -1496.02 0 
-629.105 -1490.49 0 -652.959 -1479.1 0 -222.093 -1487.54 0 
-195.258 -1479.09 0 601.923 -1479.07 0 1142.49 -1479.06 0 
1146.94 -1483.84 0 1812.96 -1492.29 0 1823.37 -1479.04 0 
2578.47 -1479.02 0 -666.105 -1472.83 0 -688.577 -1462.1 0 
-185.092 -1475.89 0 -148.09 -1464.25 0 -141.222 -1462.09 0 
600.213 -1462.07 0 1126.67 -1462.06 0 1833.77 -1462.04 0 
2579.6 -1462.02 0 -703.105 -1455.17 0 -715.757 -1445.1 0 
-111.089 -1455.5 0 -74.0877 -1456.52 0 -56.6552 -1445.09 0 
597.958 -1445.07 0 1110.85 -1445.06 0 1841.79 -1445.04 0 
2580.74 -1445.02 0 -729.622 -1428.1 0 -37.085 -1428.86 0 
-36.5404 -1428.08 0 594.23 -1428.07 0 1095.03 -1428.05 0 
1109.95 -1444.08 0 1848.14 -1428.03 0 2581.88 -1428.01 0 
-740.103 -1413.36 0 -741.707 -1411.1 0 -24.5334 -1411.08 0 
590.024 -1411.07 0 591.933 -1417.59 0 1079.2 -1411.05 0 
1849.97 -1423.15 0 1854.5 -1411.03 0 2580.46 -1411.01 0 
-753.792 -1394.1 0 -13.0569 -1394.08 0 585.703 -1394.07 0 
1057.59 -1394.05 0 1072.95 -1405.35 0 1860.85 -1394.03 0 
2578.01 -1394.01 0 -765.878 -1377.1 0 -0.560177 -1377.08 0 
582.125 -1377.07 0 1034.43 -1377.05 0 1035.95 -1378.17 0 
1867.21 -1377.03 0 2576.1 -1377.01 0 -777.101 -1361.31 0 
-777.963 -1360.1 0 -0.0809635 -1376.46 0 11.488 -1360.08 0 
579.114 -1360.06 0 1011.28 -1360.05 0 1873.56 -1360.03 0 
2573 -1360.01 0 -790.048 -1343.1 0 23.4951 -1343.08 0 
575.586 -1343.06 0 992.521 -1343.05 0 998.948 -1351 0 
1879.92 -1343.03 0 2569.81 -1343.01 0 -802.133 -1326.1 0 
35.5022 -1326.08 0 571.857 -1326.06 0 978.727 -1326.05 0 
1886.28 -1326.03 0 2566.62 -1326.01 0 -814.099 -1309.27 0 
-814.218 -1309.1 0 36.9231 -1324.07 0 47.5093 -1309.08 0 
566.695 -1309.06 0 964.867 -1309.05 0 1886.97 -1324.16 0 
1892.63 -1309.03 0 2563.43 -1309.01 0 -826.304 -1292.1 0 
59.5164 -1292.07 0 557.678 -1292.06 0 953.047 -1292.05 0 
961.949 -1305.48 0 1898.99 -1292.02 0 2560.23 -1292.01 0 
-838.389 -1275.1 0 71.5235 -1275.07 0 553.002 -1275.06 0 
554.94 -1283.14 0 941.779 -1275.05 0 1905.34 -1275.02 0 
2557.04 -1275.01 0 -850.474 -1258.1 0 73.9272 -1271.67 0 
83.5306 -1258.07 0 549.156 -1258.06 0 930.512 -1258.05 0 
1911.7 -1258.02 0 2553.85 -1258.01 0 -851.097 -1257.22 0 
-862.559 -1241.1 0 95.5377 -1241.07 0 545.319 -1241.06 0 
919.244 -1241.05 0 924.951 -1249.66 0 1920.74 -1241.02 0 
2553 -1253.48 0 2550.65 -1241 0 -874.645 -1224.1 0 
107.545 -1224.07 0 541.491 -1224.06 0 907.977 -1224.05 0 
1923.98 -1235.49 0 1930.7 -1224.02 0 2547.46 -1224 0 
-886.73 -1207.09 0 110.931 -1219.27 0 118.514 -1207.07 0 
537.672 -1207.06 0 896.709 -1207.05 0 1939.47 -1207.02 0 
2544.27 -1207 0 -888.095 -1205.17 0 -898.815 -1190.09 0 
125.92 -1190.07 0 533.861 -1190.06 0 887.013 -1190.05 0 
887.954 -1191.89 0 1947.07 -1190.02 0 2541.07 -1190 0 
-910.9 -1173.09 0 131.131 -1173.07 0 530.059 -1173.05 0 
878.627 -1173.05 0 1953.71 -1173.02 0 2537.88 -1173 0 
-922.985 -1156.09 0 134.148 -1156.06 0 526.267 -1156.05 0 
870.242 -1156.04 0 1959.55 -1156.02 0 2534.69 -1156 0 
-925.093 -1153.44 0 -936.056 -1139.09 0 135.956 -1139.06 0 
[...]
POINT_DATA 7147
SCALARS Pressure double
LOOKUP_TABLE default
3.0932710339 3.0932710339 3.0932710339 3.0932710339 3.0932710339 3.0932710339 3.0932710339 3.0932710339 3.0932710339 
3.0932710339 3.0932710339 3.0932710339 3.0932710339 3.0932710339 3.0932710339 3.0932710339 3.0932710339 3.0932710339 
3.0932710339 3.0932710339 3.0932710339 3.0932710339 3.0932710339 3.0932710339 3.0932710339 3.0932710339 3.0932710339 
3.0932710339 3.0932710339 3.0932710339 3.0932710339 3.0932710339 3.0932710339 3.0932710339 3.0932710339 3.0932710339 
3.0932710339 3.0932710339 3.0932710339 3.0932710339 3.0932710339 3.0932710339 3.0932710339 3.0932710339 3.0932710339 
3.0932710339 3.0932710339 3.0932710339 3.0932710339 3.0932710339 3.0932710339 3.0932710339 3.0932710339 3.0932710339 
3.0932710339 3.0932710339 3.0932710339 3.0932710339 3.0932710339 3.0932710339 3.0932710339 3.0932710339 3.0932710339 
3.0932710339 3.0932710339 3.0932710339 3.0932710339 3.0932710339 3.0932710339 3.0932710339 3.0932710339 3.0932710339 
3.0932710339 3.0932710339 3.0932710339 3.0932710339 3.0932710339 3.0932710339 3.0932710339 3.0932710339 3.0932710339 
3.0932710339 3.0932710339 3.0932710339 3.0932710339 3.0932710339 3.0932710339 3.0932710339 3.0932710339 3.0932710339 
3.0932710339 3.0932710339 3.0932710339 3.0932710339 3.0932710339 3.0932710339 3.0932710339 3.0932710339 3.0932710339 
3.0932710339 3.0932710339 3.0932710339 3.0932710339 3.0932710339 3.0932710339 3.0932710339 3.0932710339 3.0932710339 
3.0932710339 3.0932710339 3.0932710339 3.0932710339 3.0932710339 3.0932710339 3.0932710339 3.0932710339 3.0932710339 
3.0932710339 3.0932710339 3.0932710339 3.0932710339 3.0932710339 3.0932710339 3.0932710339 3.0932710339 3.0932710339 
3.0932710339 3.0932710339 3.0932710339 3.0932710339 3.0932710339 3.0932710339 3.0932710339 3.0932710339 3.0932710339 
3.0932710339 3.0932710339 3.0932710339 3.0932710339 3.0932710339 3.0932710339 3.0932710339 3.0932710339 3.0932710339 
3.0932710339 3.0932710339 3.0932710339 3.0932710339 3.0932710339 3.0932710339 3.0932710339 3.0932710339 3.0932710339 
3.0932710339 3.0932710339 3.0932710339 3.0932710339 3.0932710339 3.0932710339 3.0932710339 3.0932710339 3.0932710339 
3.0932710339 3.0932710339 3.0932710339 3.0932710339 3.0932710339 3.0932710339 3.0932710339 3.0932710339 3.0932710339 
3.0932710339 3.0932710339 3.0932710339 3.0932710339 3.0932710339 3.0932710339 3.0932710339 3.0932710339 3.0932710339 
3.0932710339 3.0932710339 3.0932710339 3.0932710339 3.0932710339 3.0932710339 3.0932710339 3.0932710339 3.0932710339 
3.0932710339 3.0932710339 3.0932710339 3.0932710339 3.0932710339 3.0932710339 3.0932710339 3.0932710339 3.0932710339 
3.0932710339 3.0932710339 3.0932710339 3.0932710339 3.0932710339 3.0932710339 3.0932710339 3.0932710339 3.0932710339 
3.0932710339 3.0932710339 3.0932710339 3.0932710339 3.0932710339 3.0932710339 3.0932710339 3.0932710339 3.0932710339 
3.0932710339 3.0932710339 3.0932710339 3.0932710339 3.0932710339 3.0932710339 3.0932710339 3.0932710339 3.0932710339 
3.0932710339 3.0932710339 3.0932710339 3.0932710339 3.0932710339 3.0932710339 3.0932710339 3.0932710339 3.0932710339 
3.0932710339 3.0932710339 3.0932710339 3.0932710339 3.0932710339 3.0932710339 3.0932710339 3.0932710339 3.0932710339 
3.0932710339 3.0932710339 3.0932710339 3.0932710339 3.0932710339 3.0932710339 3.0932710339 3.0932710339 3.0932710339 
3.0932710339 3.0932710339 3.0932710339 3.0932710339 3.0932710339 3.0932710339 3.0932710339 3.0932710339 3.0932710339 
3.0932710339 3.0932710339 3.0932710339 3.0932710339 3.0932710339 3.0932710339 3.0932710339 3.0932710339 3.0932710339 
3.0932710339 3.0932710339 3.0932710339 3.0932710339 3.0932710339 3.0932710339 3.0932710339 3.0932710339 3.0932710339 
3.0932710339 3.0932710339 3.0932710339 3.0932710339 3.0932710339 3.0932710339 3.0932710339 3.0932710339 3.0932710339 
3.0932710339 3.0932710339 3.1078652246 3.1078652246 3.1078652246 3.1078652246 3.1078652246 3.1078652246 3.1078652246 
3.1078652246 3.1078652246 3.1078652246 3.1078652246 3.0932710339 3.0932710339 3.1078652246 3.1078652246 3.1078652246 
3.1078652246 3.0932710339 3.0932710339 3.1078652246 3.1078652246 3.1078652246 3.0932710339 3.0932710339 3.1078652246 
3.1078652246 3.1078652246 3.0932710339 3.0932710339 3.1078652246 3.1078652246 3.0932710339 3.0786768432 3.0786768432 
3.0786768432 3.0786768432 3.0932710339 3.1078652246 3.1078652246 3.1078652246 3.1078652246 3.0932710339 3.0786768432 
3.0786768432 3.0786768432 3.0786768432 3.0786768432 3.0932710339 3.1078652246 3.1078652246 3.0932710339 3.0786768432 
3.0786768432 3.0786768432 3.0786768432 3.0932710339 3.1078652246 3.1078652246 3.1078652246 3.1078652246 3.0932710339 
3.0786768432 3.0786768432 3.0786768432 3.0786768432 3.0786768432 3.0932710339 3.1078652246 3.1078652246 3.0932710339 
3.0786768432 3.0786768432 3.0786768432 3.0786768432 3.0932710339 3.1078652246 3.1078652246 3.1078652246 3.1078652246 
3.0932710339 3.0786768432 3.0786768432 3.0786768432 3.0786768432 3.0786768432 3.0932710339 3.1078652246 3.1078652246 
3.0932710339 3.0786768432 3.0786768432 3.0786768432 3.0786768432 3.0786768432 3.0932710339 3.1078652246 3.1078652246 
3.0932710339 3.0786768432 3.0786768432 3.0786768432 3.0932710339 3.1078652246 3.1078652246 3.1078652246 3.0932710339 
3.0786768432 3.0786768432 3.0786768432 3.0932710339 3.0932710339 3.1078652246 3.1078652246 3.1078652246 3.0932710339 
3.0786768432 3.0786768432 3.0932710339 3.1078652246 3.1078652246 3.1078652246 3.0932710339 3.0786768432 3.0786768432 
3.0932710339 3.1078652246 3.1078652246 3.1078652246 3.0932710339 3.0786768432 3.0786768432 3.0786768432 3.0786768432 
3.0932710339 3.1078652246 3.1078652246 3.0932710339 3.0786768432 3.0786768432 3.0932710339 3.1078652246 3.1078652246 
3.1078652246 3.0932710339 3.0786768432 3.0786768432 3.0932710339 3.1078652246 3.1078652246 3.0932710339 3.0786768432 
3.0786768432 3.0786768432 3.0786768432 3.0932710339 3.1078652246 3.1078652246 3.1078652246 3.0932710339 3.0786768432 
3.0786768432 3.0932710339 3.1078652246 3.1078652246 3.1078652246 3.0932710339 3.0786768432 3.0786768432 3.0932710339 
3.0932710339 3.1078652246 3.1078652246 3.0932710339 3.0786768432 3.0786768432 3.0786768432 3.0932710339 3.1078652246 
3.1078652246 3.0932710339 3.0786768432 3.0786768432 3.0786768432 3.0932710339 3.1078652246 3.1078652246 3.1078652246 
3.0932710339 3.0932710339 3.0786768432 3.0786768432 3.0932710339 3.1078652246 3.1078652246 3.1078652246 3.0932710339 
3.0786768432 3.0786768432 3.0786768432 3.0932710339 3.1078652246 3.1078652246 3.0932710339 3.0786768432 3.0786768432 
3.0786768432 3.0932710339 3.1078652246 3.1078652246 3.1078652246 3.0932710339 3.0786768432 3.0786768432 3.0932710339 
3.1078652246 3.1078652246 3.0932710339 3.0786768432 3.0786768432 3.0932710339 3.1078652246 3.1078652246 3.0932710339 
3.0786768432 3.0786768432 3.0786768432 3.0932710339 3.1078652246 3.1078652246 3.1078652246 3.0932710339 3.0786768432 
3.0786768432 3.0932710339 3.1078652246 3.1078652246 3.0932710339 3.0786768432 3.0786768432 3.0786768432 3.0932710339 
3.0932710339 3.1078652246 3.1078652246 3.1078652246 3.0932710339 3.0786768432 3.0786768432 3.0932710339 3.1078652246 
3.1078652246 3.0932710339 3.0786768432 3.0786768432 3.0786768432 3.0932710339 3.1078652246 3.1078652246 3.0932710339 
3.0786768432 3.0786768432 3.0786768432 3.0932710339 3.1078652246 3.1078652246 3.0932710339 3.0786768432 3.0786768432 
3.0932710339 3.1078652246 3.1078652246 3.1078652246 3.0932710339 3.0786768432 3.0786768432 3.0932710339 3.1078652246 
3.1078652246 3.1078652246 3.0932710339 3.0786768432 3.0786768432 3.0932710339 3.1078652246 3.1078652246 3.0932710339 
3.0786768432 3.0786768432 3.0932710339 3.1078652246 3.1078652246 3.1078652246 3.0932710339 3.0786768432 3.0786768432 
3.0932710339 3.1078652246 3.1224594153 3.1224594153 3.1224594153 3.1224594153 3.1224594153 3.1224594153 3.1078652246 
3.0932710339 3.0786768432 3.0786768432 3.0786768432 3.0932710339 3.1078652246 3.1224594153 3.1224594153 3.1224594153 
3.1224594153 3.1078652246 3.0932710339 3.0786768432 3.0786768432 3.0932710339 3.1078652246 3.1224594153 3.1224594153 
3.1224594153 3.1224594153 3.1224594153 3.1078652246 3.0932710339 3.0786768432 3.0786768432 3.0932710339 3.0932710339 
3.1078652246 3.1078652246 3.1224594153 3.1224594153 3.1224594153 3.1224594153 3.1078652246 3.0932710339 3.0932710339 
3.0786768432 3.0786768432 3.0932710339 3.1078652246 3.1224594153 3.1224594153 3.1224594153 3.1078652246 3.0932710339 
3.0786768432 3.0786768432 3.0932710339 3.1078652246 3.1224594153 3.1224594153 3.1224594153 3.1224594153 3.1078652246 
3.1078652246 3.0932710339 3.0786768432 3.0786768432 3.0786768432 3.0932710339 3.1078652246 3.1224594153 3.1224594153 
3.1078652246 3.0932710339 3.0786768432 3.0786768432 3.0932710339 3.1078652246 3.1078652246 3.1224594153 3.1224594153 
3.1224594153 3.1224594153 3.1078652246 3.0932710339 3.0786768432 3.0786768432 3.0932710339 3.1078652246 3.1224594153 
3.1224594153 3.1078652246 3.0932710339 3.0786768432 3.0786768432 3.0932710339 3.1078652246 3.1224594153 3.1224594153 
3.1224594153 3.1078652246 3.0932710339 3.0786768432 3.0786768432 3.0932710339 3.0932710339 3.1078652246 3.1078652246 
3.1224594153 3.1224594153 3.1224594153 3.1078652246 3.0932710339 3.0786768432 3.0786768432 3.0932710339 3.1078652246 
3.1224594153 3.1224594153 3.1078652246 3.0932710339 3.0786768432 3.0786768432 3.0932710339 3.1078652246 3.1224594153 
3.1224594153 3.1224594153 3.1078652246 3.1078652246 3.0932710339 3.0786768432 3.0786768432 3.0786768432 3.0786768432 
3.0786768432 3.0786768432 3.0932710339 3.1078652246 3.1224594153 3.1224594153 3.1224594153 3.1078652246 3.0932710339 
3.0786768432 3.0786768432 3.0786768432 3.0786768432 3.0786768432 3.0640826525 3.0640826525 3.0640826525 3.0640826525 
3.0640826525 3.0640826525 3.0640826525 3.0640826525 3.0786768432 3.0932710339 3.1078652246 3.1224594153 3.1224594153 
3.1224594153 3.1078652246 3.0932710339 3.0786768432 3.0786768432 3.0786768432 3.0786768432 3.0786768432 3.0640826525 
3.0640826525 3.0640826525 3.0640826525 3.0786768432 3.0932710339 3.1078652246 3.1078652246 3.1224594153 3.1224594153 
3.1078652246 3.0932710339 3.0786768432 3.0786768432 3.0786768432 3.0786768432 3.0640826525 3.0640826525 3.0786768432 
3.0932710339 3.1078652246 3.1224594153 3.1224594153 3.1224594153 3.1224594153 3.1078652246 3.0932710339 3.0786768432 
3.0786768432 3.0786768432 3.0786768432 3.0786768432 3.0786768432 3.0786768432 3.0640826525 3.0640826525 3.0640826525 
3.0640826525 3.0786768432 3.0932710339 3.1078652246 3.1224594153 3.1224594153 3.1078652246 3.0932710339 3.0786768432 
3.0786768432 3.0786768432 3.0786768432 3.0786768432 3.0640826525 3.0640826525 3.0640826525 3.0786768432 3.0932710339 
3.1078652246 3.1224594153 3.1224594153 3.1078652246 3.0932710339 3.0786768432 3.0786768432 3.0786768432 3.0786768432 
3.0640826525 3.0640826525 3.0640826525 3.0786768432 3.0932710339 3.1078652246 3.1078652246 3.1224594153 3.1224594153 
3.1224594153 3.1078652246 3.0932710339 3.0786768432 3.0786768432 3.0786768432 3.0786768432 3.0640826525 3.0640826525 
3.0786768432 3.0932710339 3.1078652246 3.1224594153 3.1224594153 3.1224594153 3.1078652246 3.0932710339 3.0786768432 
3.0786768432 3.0786768432 3.0786768432 3.0786768432 3.0640826525 3.0640826525 3.0640826525 3.0640826525 3.0786768432 
3.0932710339 3.0932710339 3.1078652246 3.1224594153 3.1224594153 3.1078652246 3.0932710339 3.0786768432 3.0786768432 
3.0786768432 3.0786768432 3.0786768432 3.0640826525 3.0640826525 3.0786768432 3.0932710339 3.1078652246 3.1224594153 
3.1224594153 3.137053606 3.137053606 3.137053606 3.137053606 3.1224594153 3.1078652246 3.1078652246 3.0932710339 
3.0786768432 3.0786768432 3.0786768432 3.0640826525 3.0640826525 3.0640826525 3.0786768432 3.0932710339 3.1078652246 
3.1224594153 3.137053606 3.137053606 3.137053606 3.137053606 3.137053606 3.1224594153 3.1078652246 3.0932710339 
3.0786768432 3.0786768432 3.0786768432 3.0640826525 3.0640826525 3.0640826525 3.0786768432 3.0932710339 3.1078652246 
3.1224594153 3.1224594153 3.137053606 3.137053606 3.137053606 3.1224594153 3.1078652246 3.0932710339 3.0786768432 
3.0786768432 3.0786768432 3.0786768432 3.0640826525 3.0640826525 3.0786768432 3.0932710339 3.1078652246 3.1078652246 
3.1224594153 3.137053606 3.137053606 3.137053606 3.137053606 3.1224594153 3.1224594153 3.1078652246 3.0932710339 
3.0932710339 3.0786768432 3.0786768432 3.0786768432 3.0786768432 3.0640826525 3.0640826525 3.0786768432 3.0932710339 
3.1078652246 3.1224594153 3.137053606 3.137053606 3.1224594153 3.1078652246 3.0932710339 3.0786768432 3.0786768432 
3.0786768432 3.0640826525 3.0640826525 3.0786768432 3.0932710339 3.1078652246 3.1224594153 3.1224594153 3.137053606 
3.137053606 3.137053606 3.137053606 3.1224594153 3.1078652246 3.0932710339 3.0786768432 3.0786768432 3.0786768432 
3.0640826525 3.0640826525 3.0786768432 3.0932710339 3.1078652246 3.1078652246 3.1224594153 3.137053606 3.137053606 
3.137053606 3.1224594153 3.1078652246 3.0932710339 3.0786768432 3.0786768432 3.0786768432 3.0786768432 3.0640826525 
3.0640826525 3.0640826525 3.0640826525 3.0786768432 3.0932710339 3.1078652246 3.1224594153 3.1224594153 3.137053606 
3.137053606 3.137053606 3.1224594153 3.1078652246 3.0932710339 3.0786768432 3.0786768432 3.0786768432 3.0640826525 
3.0640826525 3.0786768432 3.0932710339 3.0932710339 3.1078652246 3.1224594153 3.137053606 3.137053606 3.137053606 
3.1224594153 3.1078652246 3.0932710339 3.0786768432 3.0786768432 3.0786768432 3.0786768432 3.0786768432 3.0640826525 
3.0640826525 3.0786768432 3.0932710339 3.1078652246 3.1224594153 3.137053606 3.137053606 3.137053606 3.137053606 
3.1224594153 3.1224594153 3.1078652246 3.0932710339 3.0786768432 3.0786768432 3.0786768432 3.0640826525 3.0494884618 
3.0494884618 3.0494884618 3.0494884618 3.0494884618 3.0640826525 3.0786768432 3.0932710339 3.1078652246 3.1078652246 
3.1224594153 3.1224594153 3.137053606 3.137053606 3.1224594153 3.1078652246 3.0932710339 3.0786768432 3.0786768432 
3.0786768432 3.0640826525 3.0494884618 3.0494884618 3.0494884618 3.0494884618 3.0640826525 3.0786768432 3.0932710339 
3.1078652246 3.1224594153 3.137053606 3.137053606 3.137053606 3.1224594153 3.1078652246 3.0932710339 3.0786768432 
3.0786768432 3.0786768432 3.0786768432 3.0640826525 3.0640826525 3.0494884618 3.0494884618 3.0494884618 3.0640826525 
3.0786768432 3.0932710339 3.1078652246 3.1224594153 3.137053606 3.137053606 3.1224594153 3.1078652246 3.0932710339 
3.0786768432 3.0786768432 3.0786768432 3.0640826525 3.0494884618 3.0494884618 3.0494884618 3.0640826525 3.0786768432 
3.0932710339 3.0932710339 3.1078652246 3.1078652246 3.1224594153 3.1224594153 3.137053606 3.137053606 3.137053606 
3.1224594153 3.1078652246 3.0932710339 3.0786768432 3.0786768432 3.0786768432 3.0786768432 3.0640826525 3.0494884618 
3.0494884618 3.0494884618 3.0640826525 3.0786768432 3.0932710339 3.1078652246 3.1224594153 3.137053606 3.137053606 
3.1224594153 3.1078652246 3.0932710339 3.0786768432 3.0786768432 3.0786768432 3.0786768432 3.0640826525 3.0494884618 
3.0494884618 3.0494884618 3.0640826525 3.0786768432 3.0932710339 3.1078652246 3.1224594153 3.137053606 3.137053606 
3.137053606 3.137053606 3.1224594153 3.1078652246 3.0932710339 3.0786768432 3.0786768432 3.0786768432 3.0786768432 
3.0640826525 3.0494884618 3.0494884618 3.0494884618 3.0640826525 3.0786768432 3.0932710339 3.1078652246 3.1224594153 
3.137053606 3.137053606 3.1224594153 3.1078652246 3.0932710339 3.0932710339 3.0786768432 3.0786768432 3.0786768432 
3.0786768432 3.0640826525 3.0494884618 3.0494884618 3.0640826525 3.0786768432 3.0786768432 3.0932710339 3.1078652246 
3.1078652246 3.1224594153 3.1224594153 3.137053606 3.137053606 3.1224594153 3.1078652246 3.0932710339 3.0786768432 
3.0786768432 3.0786768432 3.0640826525 3.0494884618 3.0494884618 3.0640826525 3.0786768432 3.0932710339 3.1078652246 
3.1224594153 3.137053606 3.137053606 3.1224594153 3.1078652246 3.0932710339 3.0786768432 3.0786768432 3.0786768432 
3.0786768432 3.0786768432 3.0640826525 3.0494884618 3.0494884618 3.0494884618 3.0640826525 3.0786768432 3.0932710339 
3.0932710339 3.1078652246 3.1224594153 3.137053606 3.137053606 3.137053606 3.1224594153 3.1078652246 3.0932710339 
3.0786768432 3.0786768432 3.0786768432 3.0786768432 3.0640826525 3.0640826525 3.0494884618 3.0348942711 3.0348942711 
3.0348942711 3.0348942711 3.0494884618 3.0640826525 3.0786768432 3.0932710339 3.1078652246 3.1224594153 3.137053606 
3.137053606 3.1224594153 3.1078652246 3.0932710339 3.0786768432 3.0786768432 3.0786768432 3.0786768432 3.0640826525 
3.0494884618 3.0348942711 3.0348942711 3.0348942711 3.0348942711 3.0494884618 3.0494884618 3.0640826525 3.0786768432 
3.0932710339 3.1078652246 3.1224594153 3.1224594153 3.137053606 3.137053606 3.1224594153 3.1078652246 3.0932710339 
3.0786768432 3.0640826525 3.0640826525 3.0640826525 3.0640826525 3.0640826525 3.0640826525 3.0786768432 3.0786768432 
3.0786768432 3.0640826525 3.0494884618 3.0348942711 3.0348942711 3.0348942711 3.0348942711 3.0494884618 3.0640826525 
3.0786768432 3.0932710339 3.1078652246 3.1078652246 3.1224594153 3.137053606 3.137053606 3.1224594153 3.1078652246 
3.0932710339 3.0786768432 3.0640826525 3.0640826525 3.0640826525 3.0786768432 3.0786768432 3.0786768432 3.0786768432 
3.0786768432 3.0786768432 3.0786768432 3.0640826525 3.0494884618 3.0348942711 3.0348942711 3.0494884618 3.0640826525 
3.0786768432 3.0932710339 3.1078652246 3.1224594153 3.137053606 3.137053606 3.137053606 3.1224594153 3.1078652246 
3.0932710339 3.0786768432 3.0786768432 3.0640826525 3.0640826525 3.0640826525 3.0786768432 3.0786768432 3.0786768432 
3.0640826525 3.0494884618 3.0348942711 3.0348942711 3.0494884618 3.0640826525 3.0786768432 3.0932710339 3.1078652246 
3.1224594153 3.1224594153 3.137053606 3.137053606 3.1224594153 3.1224594153 3.1078652246 3.0932710339 3.0786768432 
3.0640826525 3.0640826525 3.0640826525 3.0640826525 3.0786768432 3.0786768432 3.0786768432 3.0640826525 3.0494884618 
3.0494884618 3.0348942711 3.0348942711 3.0203000804 3.0203000804 3.0203000804 3.0203000804 3.0348942711 3.0348942711 
3.0494884618 3.0640826525 3.0786768432 3.0786768432 3.0932710339 3.1078652246 3.1224594153 3.137053606 2.9473291268 
2.9473291268 2.9619233175 2.9619233175 2.9765175082 2.9765175082 2.991111699 2.991111699 3.0057058897 3.0057058897 
3.0203000804 3.0203000804 3.0348942711 3.0348942711 3.0494884618 3.0494884618 3.0640826525 3.0640826525 3.0786768432 
3.0786768432 3.0932710339 3.0932710339 3.1078652246 3.1078652246 3.1224594153 3.1224594153 3.137053606 3.137053606 
2.9473291268 2.9619233175 2.9765175082 2.991111699 3.0057058897 3.0203000804 3.0348942711 3.0494884618 3.0640826525 
3.0786768432 3.0932710339 3.1078652246 3.1224594153 3.137053606 2.9473291268 2.9619233175 2.9765175082 2.991111699 
3.0057058897 3.0203000804 3.0348942711 3.0494884618 3.0640826525 3.0786768432 3.0932710339 3.1078652246 3.1224594153 
3.137053606 2.9473291268 2.9619233175 2.9765175082 2.991111699 3.0057058897 3.0203000804 3.0348942711 3.0494884618 
3.0640826525 3.0786768432 3.0932710339 3.1078652246 3.1224594153 3.137053606 2.9473291268 2.9619233175 2.9765175082 
2.991111699 3.0057058897 3.0203000804 3.0348942711 3.0494884618 3.0640826525 3.0786768432 3.0932710339 3.1078652246 
3.1224594153 3.137053606 2.9473291268 2.9619233175 2.9765175082 2.991111699 3.0057058897 3.0203000804 3.0348942711 
3.0494884618 3.0640826525 3.0786768432 3.0932710339 3.1078652246 3.1224594153 3.137053606 2.9473291268 2.9619233175 
2.9765175082 2.991111699 3.0057058897 3.0203000804 3.0348942711 3.0494884618 3.0640826525 3.0786768432 3.0932710339 
3.1078652246 3.1224594153 3.137053606 2.9473291268 2.9619233175 2.9765175082 2.991111699 3.0057058897 3.0203000804 
3.0348942711 3.0494884618 3.0640826525 3.0786768432 3.0932710339 3.1078652246 3.1224594153 3.137053606 2.9473291268 
2.9619233175 2.9765175082 2.991111699 3.0057058897 3.0203000804 3.0348942711 3.0494884618 3.0640826525 3.0786768432 