# vtk DataFile Version 4.2
vtk output
ASCII
DATASET UNSTRUCTURED_GRID
POINTS 1740 double
2144.07 -94.44003 0 2911 0 0 16.54298 -37.82236 0 
5.09149 -21.30132 0 1.27433 -10.75385 0 0 0 0 
2.54575 15.14293 0 6.36291 23.76126 0 14.00014 34.89063 0 
30.50239 50.70793 0 33.39435 -52.93479 0 2050.91 -103.7862 0 
60.1465 -69.72165 0 88.83633 -83.2817 0 118.7656 -94.71113 0 
153.4168 -105.7022 0 199.5806 -117.771 0 261.4466 -130.7139 0 
345.846 -144.1892 0 460.3522 -157.0592 0 608.4185 -167.1903 0 
783.2313 -172.4016 0 941.0559 -172.4533 0 1063.409 -170.1096 0 
1164.153 -166.8746 0 1263.449 -162.682 0 1375.468 -156.8941 0 
1513.293 -148.414 0 1665.281 -137.5317 0 1791.864 -127.3721 0 
2195.451 -89.09491 0 2273.924 -80.67077 0 2383.731 -68.3513 0 
2517.64 -52.47337 0 2649.227 -35.9232 0 2740.773 -23.82991 0 
2804.387 -15.13419 0 2848.802 -8.916218 0 2881.944 -4.196067 0 
56.61447 67.79801 0 84.09687 81.25172 0 112.4783 92.48395 0 
142.1748 102.3504 0 174.8563 111.6168 0 213.124 120.8806 0 
260.3759 130.5151 0 324.6539 141.1779 0 418.1422 152.9178 0 
535.6656 162.9871 0 690.9154 170.4255 0 902.6513 172.7852 0 
1100.32 169.0517 0 1270.99 162.3262 0 1462.794 151.6837 0 
1631.287 140.0952 0 1747.993 131 0 1922.788 115.9027 0 
2069.56 101.951 0 2128.804 96.0021 0 2297.147 78.11721 0 
2414.379 64.80104 0 2554.023 47.99319 0 2673.693 32.73885 0 
2757.97 21.50315 0 2814.297 13.7575 0 2852.02 8.460961 0 
2882.272 4.148909 0 1791.052 127.4402 0 1366.894 157.3738 0 
1444.38 -152.8302 0 1547.039 146.1296 0 1589.287 -143.1614 0 
1878.731 119.8675 0 1997.072 108.9828 0 1185.654 166.0472 0 
1882.536 -119.5292 0 1971.323 -111.4145 0 1684.777 136.0292 0 
2099.317 -98.9855 0 2234.809 84.9091 0 2181.695 90.53914 0 
1728.573 -132.5703 0 1718.815 133.3509 0 1834.825 123.7132 0 
1960.305 112.4444 0 2033.69 105.4648 0 2099.184 98.99892 0 
2214.291 -78.242200585 396.8421 2955.512 12.431375901 396.8421 158.0786 -31.571246391 396.8421 
147.0109 -15.72150605 396.8421 143.3217 -5.5866001922 396.8421 142.09 4.758465665 396.8421 
144.5505 19.345246489 396.8421 148.2398 27.65757801 396.8421 155.621 38.40379274 396.8421 
171.5701 53.701337718 396.8421 174.3652 -46.039965438 396.8421 2124.254 -87.367049466 396.8421 
200.2206 -62.073900492 396.8421 227.9488 -74.991869014 396.8421 256.8748 -85.852400837 396.8421 
290.3647 -96.267956479 396.8421 334.981 -107.66532995 396.8421 394.7733 -119.82832569 396.8421 
476.3434 -132.39555712 396.8421 587.0114 -144.23836296 396.8421 730.1145 -153.29473379 396.8421 
899.0676 -157.5134863 396.8421 1051.602 -156.87402707 396.8421 1169.853 -154.10892123 396.8421 
1267.221 -150.594843 396.8421 1363.188 -146.18356411 396.8421 1471.452 -140.21284658 396.8421 
1604.657 -131.5978237 396.8421 1751.55 -120.67882066 396.8421 1873.891 -110.57767144 396.8421 
2263.949 -73.039330474 396.8421 2339.792 -64.860709917 396.8421 2445.918 -52.943688366 396.8421 
2575.338 -37.652968917 396.8421 2702.515 -21.787901755 396.8421 2790.992 -10.237363609 396.8421 
2852.473 -1.951960114 396.8421 2895.4 3.962952147 396.8421 2927.431 8.4479369894 396.8421 
196.807 70.266271861 396.8421 223.3682 83.33702496 396.8421 250.7983 94.273615742 396.8421 
279.4994 103.90150635 396.8421 311.0855 112.96533265 396.8421 348.0705 122.05171536 396.8421 
393.7383 131.53544536 396.8421 455.8617 142.08565565 396.8421 546.2162 153.80449342 396.8421 
659.8003 164.02411975 396.8421 809.846 171.87873157 396.8421 1014.485 175.08092008 396.8421 
1205.528 172.32220973 396.8421 1370.477 166.52887838 396.8421 1555.851 156.98869604 396.8421 
1718.696 146.38574753 396.8421 1831.49 137.97033832 396.8421 2000.426 123.8707021 396.8421 
2142.278 110.72569163 396.8421 2199.537 105.09207497 396.8421 2362.236 88.063772431 396.8421 
2475.539 75.305148564 396.8421 2610.501 59.114144749 396.8421 2726.16 44.343802791 396.8421 
2807.613 33.42258055 396.8421 2862.05 25.874410338 396.8421 2898.509 20.704280985 396.8421 
2927.749 16.490156073 396.8421 1873.106 134.65916169 396.8421 1463.165 162.12287341 396.8421 
1538.054 -136.0693172 396.8421 1637.272 151.92693614 396.8421 1678.104 -126.31228347 396.8421 
1957.846 127.58723212 396.8421 2072.22 117.36340373 396.8421 1288 169.77589852 396.8421 
1961.524 -102.82674638 396.8421 2047.334 -94.842997301 396.8421 1770.393 142.63221904 396.8421 
2171.038 -82.67557292 396.8421 2301.989 94.54569534 396.8421 2250.655 99.904795627 396.8421 
1812.721 -115.73647801 396.8421 1803.29 140.15192616 396.8421 1915.411 131.183108 396.8421 
2036.686 120.62170242 396.8421 2107.61 114.04557253 396.8421 2170.909 107.93211313 396.8421 
2284.511 -63.934215939 793.6842 3000.027 23.636627058 793.6842 299.6143 -25.968732855 793.6842 
288.9304 -10.766206642 793.6842 285.3691 -1.0316137586 793.6842 284.1801 8.9148645073 793.6842 
286.5551 22.956100438 793.6842 290.1167 30.966473146 793.6842 297.2417 41.332414526 793.6842 
312.6379 56.109678813 793.6842 315.336 -39.821545557 793.6842 2197.597 -72.865203637 793.6842 
340.2947 -55.140968515 793.6842 367.0612 -67.454622234 793.6842 394.9839 -77.783579978 793.6842 
427.3123 -87.665127906 793.6842 470.3812 -98.444563903 793.6842 528.0998 -109.89681705 793.6842 
606.8411 -121.64677204 793.6842 713.6708 -132.58002895 793.6842 851.8104 -140.70429503 793.6842 
1014.904 -144.08462634 793.6842 1162.147 -142.87864348 793.6842 1276.298 -139.77800877 793.6842 
1370.288 -136.04798402 793.6842 1462.927 -131.47295046 793.6842 1567.436 -125.37256339 793.6842 
1696.021 -116.67344416 793.6842 1837.82 -105.75428722 793.6842 1955.917 -95.725139695 793.6842 
2332.447 -58.854001608 793.6842 2405.659 -50.884642855 793.6842 2508.105 -39.306114236 793.6842 
2633.037 -24.502758918 793.6842 2755.801 -9.2000726385 793.6842 2841.209 1.9080887156 793.6842 
2900.561 9.8604142751 793.6842 2941.997 15.529968705 793.6842 2972.917 19.824858848 793.6842 
336.9995 72.141958544 793.6842 362.6396 84.818157601 793.6842 389.1182 95.444838212 793.6842 
416.8239 104.81773548 793.6842 447.3145 113.65947651 793.6842 483.0167 122.54415105 793.6842 
527.1009 131.84540499 793.6842 587.0697 142.23772096 793.6842 674.2905 153.86640996 793.6842 
783.9349 164.14585431 793.6842 928.7766 172.29364309 793.6842 1126.317 176.17121769 793.6842 
1310.735 174.23892666 793.6842 1469.963 169.26089903 793.6842 1648.908 160.70966834 793.6842 
1806.105 151.01348084 793.6842 1914.987 143.23645992 793.6842 2078.064 130.09636486 793.6842 
2214.996 117.75088596 793.6842 2270.269 112.43663672 793.6842 2427.326 96.300550693 793.6842 
2536.699 84.146754664 793.6842 2666.98 68.655067085 793.6842 2778.628 54.463498158 793.6842 
2857.255 43.937569552 793.6842 2909.806 36.647670702 793.6842 2945.001 31.647800043 793.6842 
2973.224 27.568617172 793.6842 1955.16 140.16165198 793.6842 1559.437 165.34185672 793.6842 
1631.729 -121.17679039 793.6842 1727.505 156.09819169 793.6842 1766.921 -111.37590884 793.6842 
2036.96 133.57125389 793.6842 2147.368 123.9949032 793.6842 1390.347 172.09076342 793.6842 
2040.511 -88.065743978 793.6842 2123.346 -80.204163333 793.6842 1856.009 147.55192794 793.6842 
2242.759 -68.269893434 793.6842 2369.167 102.45501588 793.6842 2319.614 107.53228227 793.6842 
1896.869 -100.83986818 793.6842 1887.765 145.25804243 793.6842 1995.998 136.92609502 793.6842 
2113.066 127.05264681 793.6842 2181.531 120.87631524 793.6842 2242.634 115.11729016 793.6842 
2354.732 -51.479663303 1190.526 3044.539 33.390674678 1190.526 441.15 -20.864107418 1190.526 
430.8497 -6.2862752834 1190.526 427.4164 3.0595077157 1190.526 426.2701 12.617022613 1190.526 
428.5601 26.122782028 1190.526 431.9934 33.835042898 1190.526 438.8627 43.823582815 1190.526 
453.7057 58.080188262 1190.526 456.3069 -34.127056744 1190.526 2270.94 -60.221956201 1190.526 
480.3688 -48.767768776 1190.526 506.1737 -60.512272178 1190.526 533.0934 -70.344459487 1190.526 
564.26 -79.730788255 1190.526 605.7815 -89.942246759 1190.526 661.4265 -100.74847573 1190.526 
737.3385 -111.76676232 1190.526 840.33 -121.9019651 1190.526 973.5064 -129.23141906 1190.526 
1130.74 -131.92497714 1190.526 1272.693 -130.27807682 1190.526 1382.742 -126.93134211 1190.526 
1473.356 -123.05328968 1190.526 1562.666 -118.37584977 1190.526 1663.42 -112.20773343 1190.526 
1787.385 -103.48998457 1190.526 1924.09 -92.627339109 1190.526 2037.944 -82.704090105 1190.526 
2400.946 -46.515593549 1190.526 2471.527 -38.74050032 1190.526 2570.292 -27.468555501 1190.526 
2690.735 -13.095690429 1190.526 2809.091 1.7207499245 1190.526 2891.43 12.452008544 1190.526 
2948.647 20.12299771 1190.526 2988.597 25.586415622 1190.526 3018.403 29.722200797 1190.526 
477.1918 73.572929033 1190.526 501.9109 85.84365811 1190.526 527.4382 96.146984985 1190.526 
554.1485 105.24916218 1190.526 583.5435 113.85007914 1190.526 617.963 122.50986904 1190.526 
660.4633 131.59820526 1190.526 718.2775 141.7888355 1190.526 802.3645 153.26002615 1190.526 
908.0698 163.50995606 1190.526 1047.707 171.82800977 1190.526 1238.151 176.21065203 1190.526 
1415.942 174.94927338 1190.526 1569.449 170.65983944 1190.526 1741.965 162.96886651 1190.526 
1893.514 154.08213955 1190.526 1998.484 146.88675631 1190.526 2155.702 134.6403294 1190.526 
2287.714 123.0592001 1190.526 2341.001 118.05589428 1190.526 2492.415 102.80784478 1190.526 
2597.858 91.274598841 1190.526 2723.46 76.522521998 1190.526 2831.095 62.964289212 1190.526 
2906.899 52.883859117 1190.526 2957.56 45.891458239 1190.526 2991.49 41.09070415 1190.526 
3018.699 37.171138562 1190.526 2037.214 144.02995328 1190.526 1655.708 167.16135789 1190.526 
1725.403 -107.99399241 1190.526 1817.738 158.75692827 1190.526 1855.738 -98.21089573 1190.526 
2116.075 137.88795185 1190.526 2222.516 128.92446 1190.526 1492.694 173.13480218 1190.526 
2119.498 -75.152420925 1190.526 2199.357 -67.421910857 1190.526 1941.625 150.88528015 1190.526 
2314.479 -55.721182455 1190.526 2436.346 108.63289483 1190.526 2388.573 113.42998179 1190.526 
1981.017 -87.759232159 1190.526 1972.24 148.76152646 1190.526 2076.584 141.01747634 1190.526 
[...]
POINT_DATA 1740
FIELD FieldData 1
Pressure 1 1740 double
3.1056038117 3.0162273292 3.0094135479 2.9855702055 2.9782726881 2.9588137711 2.9713487852 2.9887036747 3.0197180009 
3.0336227894 3.010962173 3.109699524 3.0336781038 3.048315644 3.0657175409 3.0649870754 3.0824310713 3.087704815 
3.1089962275 3.1140864444 3.1333715001 3.1421866773 3.1450724868 3.151915198 3.1472005675 3.143039749 3.1390539586 
3.1346478235 3.1272211992 3.1210595157 3.1029578372 3.099410831 3.0938190524 3.08546858 3.0745043538 3.0642885249 
3.0543597663 3.045494936 3.0375569873 3.0697175651 3.0813513548 3.0942129591 3.1072986984 3.1134312844 3.120328858 
3.1273888532 3.1352180053 3.1507042096 3.1630162415 3.1797045556 3.1899577823 3.1963196351 3.201772914 3.2067758813 
3.2103009625 3.2131276649 3.2134134317 3.074639123 3.0768067401 3.075200979 3.0706707435 3.062824475 3.0534861027 
3.0431039768 3.0335328294 3.0263252722 3.0251240235 3.2127571971 3.2050329657 3.1374075595 3.208106771 3.1307492704 
3.212730404 3.2042567926 3.2031513642 3.1172413204 3.1133461928 3.2114331709 3.1074657958 3.0775896536 3.0779973307 
3.1237585322 3.2128367565 3.2127986255 3.2148095533 3.0665294318 3.0719301875 3.1025581479 3.0223724069 3.0275504137 
3.0010175326 3.007966418 2.986380879 2.9944100248 3.0061942004 3.0344143129 3.0530234289 3.03531355 3.1069440992 
3.0556507471 3.0682339511 3.0815569494 3.0856286787 3.1012075726 3.1108992191 3.1245224239 3.1297813824 3.140715796 
3.1456479186 3.1497686395 3.151679937 3.1466732626 3.1415894132 3.1353078463 3.1309987681 3.1240346968 3.1182165698 
3.1001578162 3.0959204456 3.0903204762 3.0820180591 3.0711528789 3.0610434659 3.0512768545 3.0435803049 3.0291198674 
3.0861328263 3.106906306 3.1190391752 3.1275892223 3.1365626897 3.1412740422 3.1466680642 3.1566451674 3.1684160688 
3.1770205089 3.186140032 3.1935036305 3.199580038 3.2055251942 3.2081315955 3.2103064327 3.2134946733 3.2203922107 
3.1041729703 3.0989576951 3.0900476905 3.0839749244 3.0753502186 3.0636642916 3.0528614876 3.0430472939 3.0365848157 
3.0361486265 3.2136500704 3.2068210647 3.134155422 3.2104920418 3.1271290504 3.2140503504 3.0966834598 3.2044771693 
3.1142998553 3.1104172127 3.2119969302 3.1048301626 3.0934993977 3.0968373392 3.1210148231 3.2126958278 3.2134019501 
3.1865828679 3.1019657592 3.101645589 3.1002138129 3.0244208869 3.0282996192 3.000677719 3.0022584635 2.984713866 
2.9969315201 3.0103542494 3.0393276175 3.0605509367 3.0440124401 3.1044815264 3.0589655611 3.0780902354 3.0962566108 
3.102390964 3.1158711274 3.1238499718 3.137483474 3.1440511141 3.1513709462 3.1546165158 3.1543418842 3.1535880348 
3.1461378712 3.139613886 3.1330695992 3.127701332 3.1212424374 3.1159103403 3.0978867496 3.093847734 3.0881673991 
3.0800678173 3.0691117085 3.0589416485 3.0498543582 3.0424844628 3.0290013898 3.0932845532 3.114866265 3.1331659752 
3.1422523645 3.1530200287 3.1613310822 3.1709458621 3.1752248594 3.1834489703 3.1930795913 3.1977733444 3.2029860248 
3.2053197354 3.2115495686 3.2132255474 3.2136896338 3.2155209815 3.1839700495 3.0987254764 3.0998669839 3.0947786064 
3.0886293682 3.0802989221 3.0691412087 3.0589322171 3.048864018 3.0415775366 3.0421617891 3.2155398438 3.212573127 
3.1310676692 3.2143109047 3.1241601465 3.2154531988 3.0977344563 3.209406528 3.1120302916 3.1080439444 3.2144220882 
3.1024512904 3.0977127597 3.099908005 3.1183111933 3.2148298472 3.2154584921 3.0927400059 3.0988375246 3.1000426656 
3.0984760412 3.0249686056 3.0288700566 3.0005341465 3.0026410906 2.982973113 2.9923046915 3.0069528333 3.0398734991 
3.06144776 3.0442072024 3.1026066878 3.0642992382 3.0821358248 3.1018914226 3.1102458847 3.1232853429 3.1308853339 
3.1448787925 3.1527698288 3.1586416384 3.1603758434 3.1586463579 3.1551731675 3.1458596574 3.1387981742 3.1319772255 
3.1258353226 3.1193993315 3.1138359471 3.0959837306 3.0920519095 3.0866966302 3.0786973316 3.0681112685 3.0579229519 
3.049347095 3.0419962021 3.0292693611 3.0969235575 3.1200698229 3.1352353687 3.147300141 3.1544363847 3.1653953075 
3.1774056355 3.1867961618 3.1944154528 3.2043361486 3.2093304653 3.2124347382 3.2137248955 3.2191385499 3.2200784837 
3.2196496705 3.220715905 3.094127138 3.0964081146 3.0960399172 3.0926945079 3.0871180603 3.0791422998 3.0688608445 
3.0591822482 3.0495512586 3.042031932 3.0429517402 3.2207805155 3.2197267662 3.1294772196 3.2206601614 3.1224551752 
3.2221963763 3.0939573453 3.2169669883 3.110044175 3.1060974371 3.220231884 3.100454702 3.0950623054 3.0958081183 
3.1163171332 3.2202492232 3.2221069229 3.0968784364 3.0956491419 3.0960403812 3.0971261052 3.0245502766 3.0308515559 
3.0013048396 3.0076833608 2.9869998112 2.9940028731 3.0077204034 3.0418063262 3.0624217368 3.0459643764 3.1012755443 
3.0676220855 3.085226484 3.1029336599 3.1125618274 3.1258764543 3.1362385515 3.1480528707 3.1567830137 3.1632288212 
3.1637949207 3.1604624157 3.1548068296 3.1444415985 3.1370159001 3.130113856 3.1241749133 3.1179119468 3.1121819938 
3.0947516224 3.0907732592 3.0855675379 3.0776708293 3.0673733662 3.0573704506 3.0490366357 3.0416329306 3.0296649517 
3.0981799694 3.1217249656 3.1365219422 3.1493735572 3.1582669129 3.1693200165 3.180426565 3.1857305318 3.1964099195 
3.2088548885 3.2168851916 3.2199901709 3.2213951245 3.2260147552 3.2266645779 3.2258950584 3.2266599926 3.0933826349 
3.0960506442 3.0953598502 3.0913071481 3.0858107236 3.0778303561 3.067581368 3.0577636923 3.0485755358 3.0408197628 
3.0423037616 3.226747655 3.2267580374 3.127840971 3.2268436052 3.1209355871 3.1230041164 3.0962650856 3.2243693925 
3.1084334593 3.1045862485 3.2262935528 3.0990317951 3.0937776347 3.0945987043 3.1148059996 3.2263772756 3.2339430113 
3.0950318688 3.0959340867 3.0957937538 3.0958879724 3.0237763631 3.0318337218 3.0024124565 3.0090867701 2.9877879039 
2.995223314 3.0090152576 3.0425268171 3.0639746342 3.0474598003 3.100078862 3.0694511406 3.0877985489 3.104511754 
3.1147247921 3.1280285649 3.1392625734 3.1515421938 3.1609641711 3.1672639366 3.1670674518 3.161975285 3.1538557567 
3.1428924109 3.1353616965 3.1286572981 3.1226293776 3.1165554314 3.1109404381 3.0935573228 3.0896860025 3.0846099848 
3.0768419844 3.0667091 3.0568160317 3.0486406166 3.0412043036 3.0299365863 3.0993255486 3.1232226698 3.1381182373 
3.1509460366 3.1598216717 3.1713829591 3.1836177714 3.1903883317 3.2012077656 3.2130602596 3.2229779546 3.2266787001 
3.2286065431 3.2336710245 3.23398484 3.2325853382 3.2326460375 3.0908415747 3.0949061373 3.0945350361 3.0902171267 
3.0846752203 3.0767479269 3.0666227462 3.0568355376 3.0477493993 3.0399301733 3.0413466617 3.2321662548 3.2339403608 
3.1262976019 3.2336283068 3.1195319554 3.0813872795 3.0940007831 3.2314671097 3.1071810299 3.1034388101 3.232419583 
3.0978140642 3.0927683251 3.0937816891 3.1135126817 3.2324574858 3.1928732996 3.0922896061 3.0947448073 3.0947066699 
3.0951563818 3.0230620946 3.0321405076 3.0023694661 3.0081350959 2.9872921245 2.9950875953 3.0091233896 3.0425301465 
3.0642824055 3.0485714325 3.0992728233 3.0706046034 3.0893467079 3.1058889176 3.1165112669 3.1299248872 3.1417034607 
3.1540886383 3.1636806003 3.1708167292 3.1697259991 3.1631074835 3.1525539329 3.1417285183 3.1343129459 3.1278378783 
3.1216689742 3.115686801 3.1100504452 3.0928440105 3.0890178314 3.083924779 3.0763031636 3.0662376061 3.0564196414 
3.0483014192 3.040862254 3.0300631652 3.0996243789 3.1237730351 3.1389494079 3.1518271791 3.1610565422 3.172696164 
3.1847966808 3.1923449806 3.2035315321 3.2163091566 3.227223063 3.2331231036 3.2355039529 3.2409212062 3.2418273711 
3.2401576188 3.2395723349 3.0922908857 3.0932158867 3.0926946604 3.088416762 3.0828927128 3.0750558957 3.0652726607 
3.0557617834 3.0467528977 3.0389921656 3.0406805161 3.2402141344 3.2415741715 3.1254201517 3.2413843136 3.1186306399 
3.0899223675 3.0933251049 3.2384977095 3.1062719363 3.1025682731 3.2396433982 3.0971817644 3.090899015 3.0915106099 
3.1126988692 3.2393923212 3.1078844954 3.0925212092 3.0937215026 3.0928945491 3.0947571371 3.0224230665 3.0323016469 
3.0024264781 3.0077681589 2.9873260251 2.9950228261 3.0091014289 3.0426057916 3.0643500721 3.0492316204 3.0989205392 
3.0712830674 3.090216792 3.1066298536 3.117616862 3.131113104 3.1433384407 3.1557655939 3.1656897846 3.1734826732 
3.1716832312 3.1636591191 3.1511673342 3.1409643431 3.1337239952 3.1274661245 3.1209765992 3.1152009892 3.1096192129 
3.0924475437 3.0887243664 3.0836150419 3.0760933906 3.0660275728 3.0562419946 3.0481162646 3.0406808704 3.0301451076 
3.0996902518 3.1240083219 3.1393826113 3.1522998433 3.161683877 3.1734100733 3.1855282931 3.1937607025 3.2052408297 
3.218299619 3.229804057 3.2369183022 3.241028666 3.2471225035 3.2486533873 3.2478514789 3.2468593519 3.0882239878 
3.090892352 3.0905903575 3.085848134 3.0806899124 3.0731318372 3.0636530776 3.0544146488 3.0456144785 3.0378949758 
3.0400237775 3.2459382065 3.2486980025 3.1248276641 3.2486324226 3.1180602441 3.0861346948 3.0907622982 3.2443588728 
3.1058105876 3.1021625789 3.2472693563 3.0967826824 3.0881142422 3.0889784035 3.112304147 3.2468879276 3.0840819002 
3.0885451118 3.0910167952 3.0908045969 3.0945804717 3.0219703623 3.032515388 3.0025688053 3.0077296104 2.987487723 
2.9952597393 3.0093323481 3.0428561809 3.0646071852 3.0495140052 3.0987515723 3.0716870076 3.0905884963 3.1069561432 
3.1182539228 3.1317571287 3.1443051862 3.1568994806 3.1666617231 3.175378221 3.1729850895 3.1637273549 3.1499943509 
3.1406502153 3.1334837889 3.1273982877 3.1206746829 3.1150656989 3.1095444065 3.0923290783 3.0886725135 3.0835217023 
3.0760656594 3.0659904284 3.0562172955 3.048041489 3.0406133261 3.0301013536 3.0999078075 3.1243142919 3.1398355665 
3.1527981936 3.1623113425 3.1741080615 3.1861693499 3.194864613 3.2067207731 3.2199567708 3.2317424799 3.2403713926 
3.2450096704 3.2520123425 3.2547965422 3.2541499728 3.2538892935 3.0855148072 3.0880755023 3.0879598489 3.0837906671 
3.0789341518 3.0716634459 3.0623276086 3.0533043188 3.0447104018 3.0370636891 3.039567956 3.2531000713 3.2538902638 
3.1245997014 3.2544805034 3.1178334985 3.0839290863 3.0873198972 3.2486384601 3.1057041123 3.1020662363 3.2539276128 
3.096690993 3.0859043027 3.0868881805 3.1122725446 3.2536809215 3.0975529619 3.0851466556 3.0879168091 3.0879782753 
3.0945781047 3.0216583808 3.0327075509 3.0027521396 3.0080079039 2.9876678046 2.9955948839 3.0096690005 3.0431164861 
3.0649603002 3.0495765213 3.0987150147 3.0717827171 3.0908092151 3.1069654852 3.1185339883 3.1320331289 3.1449431551 
3.1576225937 3.1679056358 3.1763807298 3.1736301505 3.1635524741 3.1493208478 3.1406338938 3.1334758202 3.1274687901 
3.1206650977 3.1152184011 3.1096605098 3.0923533195 3.0887338676 3.083547518 3.0761177427 3.066011895 3.0562375268 
3.0479947874 3.0405974513 3.0298506447 3.1002565049 3.1247403803 3.1404536918 3.1534562848 3.1631049299 3.1749287813 
3.1869782045 3.196007668 3.208247367 3.2215429133 3.2335986276 3.2429058692 3.2482537446 3.2557386525 3.2595426605 
3.2595419039 3.2593935946 3.0849917929 3.0857759063 3.0855976694 3.082156734 3.0775456207 3.0704488965 3.0611899744 
3.0523741544 3.0438964876 3.0363831197 3.0391479899 3.2573109178 3.2580818096 3.12462277 3.2597166056 3.117806005 
3.0848007673 3.0855471106 3.2520300761 3.1057827464 3.1020977309 3.2595059404 3.0966877714 3.0840910683 3.0849593888 
3.1124460177 3.2593891424 3.1471727012 3.0846721147 3.0857229524 3.0856147637 3.0946850788 3.0213181812 3.0329584143 
3.0029669583 3.0085175171 2.987874156 2.9960336621 3.0100405219 3.0434311566 3.0653743685 3.0493955029 3.0987775368 
3.071608569 3.0906631095 3.1069462255 3.1187775394 3.1321295406 3.1453432124 3.1578077762 3.1687351107 3.1768414922 
3.173922101 3.163375117 3.1489910423 3.1407285828 3.1335708938 3.1276208059 3.1207595306 3.1152850372 3.1098168312 
3.0924676795 3.0888809789 3.0836480883 3.0762381482 3.0660978635 3.0563070332 3.0479883619 3.0406398755 3.0293940432 
3.1007853789 3.1253350715 3.1411797829 3.1542664867 3.1640512983 3.1759068529 3.187991406 3.197301782 3.2099228263 
3.2232278781 3.2355268976 3.2452862905 3.2508771975 3.2587851076 3.2632092103 3.2637990581 3.2641306276 3.0808036259 
3.0827433062 3.0827615155 3.0800678744 3.0756228142 3.0686113389 3.0595584345 3.0509727554 3.0425915446 3.0352929254 
3.0382294694 3.261971531 3.2613782398 3.1247515367 3.2636893844 3.1179408362 3.0783212163 3.0820507221 3.2547398559 
3.1059193239 3.1020547978 3.2638749705 3.0967774134 3.0817523322 3.0823761287 3.1125602372 3.2638145554 3.1964682046 
3.0819116467 3.0824711958 3.0827107204 3.0949965017 3.0208780705 3.0332626139 3.0031973337 3.0091248181 2.9880605052 
2.9965746741 3.0104845271 3.0440060466 3.0659636718 3.0489914568 3.0991825972 3.071172113 3.0901968983 3.1065617648 
3.1186172506 3.1318189956 3.1451999193 3.1577097038 3.1686696634 3.1771831983 3.1741870247 3.1635532877 3.1490898976 
3.1410603191 3.1338569687 3.12791262 3.1210939369 3.1154868541 3.1100382411 3.0927793823 3.0891858058 3.0838822152 
3.0764711106 3.0662690737 3.0564322246 3.0480451242 3.0407326306 3.0289818363 3.1015367876 3.1261441998 3.1421329956 
3.1553266468 3.165210314 3.1771182792 3.1892554989 3.1988209769 3.2118060681 3.2251345379 3.2376478795 3.2476633374 
3.2533663084 3.2614688992 3.2663497892 3.2673748094 3.2675493442 3.0780484089 3.0795304722 3.079413162 3.0771087838 
3.0728608486 3.0659629521 3.0572073902 3.0488682247 3.0406430853 3.0336428574 3.0366935706 3.2644370818 3.264284516 
3.1250984608 3.2669612302 3.1182701243 3.074678985 3.0784741189 3.2572194058 3.1061602832 3.1022979065 3.2674932176 
3.097158749 3.0788384294 3.0791938303 3.1127949691 3.2675228845 3.2485963189 3.0806527564 3.0788578667 3.0796077038 
3.0955120934 3.0207172615 3.0335788916 3.0034471457 3.009708343 2.9883456719 2.997138834 3.0109959559 3.0445363408 
3.066728982 3.0483438891 3.0997103993 3.0704949893 3.0894405236 3.1059276672 3.1181839829 3.1312400313 3.1447080166 
3.1573314241 3.1683878702 3.1771273666 3.1743546408 3.164121183 3.1496777104 3.1416547235 3.1343650106 3.1284267826 
3.1216404491 3.1158860254 3.1104345081 3.0932545739 3.0896334478 3.084263139 3.0768281842 3.0665561191 3.0566453812 
3.0481837159 3.0408996739 3.0288332506 3.1024904516 3.1271796172 3.1433122621 3.1566631976 3.1666375855 3.1785984 
3.1908197455 3.2006055395 3.2139704257 3.2272817411 3.2399493515 3.2501711608 3.2559216787 3.2641040131 3.2693135333 
3.2706102758 3.270817572 3.073781365 3.0771931307 3.0766397678 3.0744297339 3.0703381946 3.0634857241 3.0548980277 
3.0467647346 3.0387304943 3.0320838699 3.0351599947 3.2686701376 3.2670408528 3.1256545356 3.2699387859 3.11880576 
3.0688856386 3.0757220714 3.2597293269 3.1065610094 3.1027656316 3.2706936135 3.0977166099 3.0760917603 3.0763354212 
3.1132146258 3.2707743748 3.1764186081 3.0785072543 3.0769579692 3.0769651877 3.096123392 3.0211992364 3.0339791503 
3.0038292995 3.0105110826 2.9888024731 2.99776325 3.0116395387 3.0453384785 3.0676813184 3.0475205996 3.100323983 
3.0696582625 3.0885203449 3.1050942635 3.1174406821 3.1304454539 3.14389926 3.1567853439 3.1678020863 3.1768651321 
3.174574204 3.1650423243 3.1507571419 3.1424932127 3.1350496907 3.129018846 3.1222911062 3.1164705526 3.1109953697 
3.0938345942 3.0902062437 3.0847606598 3.0773017958 3.0669515118 3.0569823012 3.0484445635 3.0411863195 3.0289719423 
3.1036836258 3.1284807892 3.1447403077 3.1582786967 3.1683203965 3.180343687 3.1926905819 3.2026439054 3.2163948967 
3.2296094596 3.2424143993 3.252721956 3.258569401 3.266749337 3.2722075792 3.2737958172 3.2742560063 3.0732203559 
3.0754908748 3.0749259736 3.0728851306 3.0689017949 3.0621818233 3.0537391342 3.0457499187 3.0378644074 3.0316529985 
3.034457715 3.2746805852 3.2697975968 3.1263205706 3.2728750014 3.119415249 3.0717120108 3.0750832407 3.2623347067 
3.1071171977 3.1033643723 3.2737988916 3.0983549086 3.0745711956 3.0747557715 3.1138415301 3.2739226392 3.1443172052 
3.0767082299 3.0756495651 3.0751062029 3.096805205 3.0222175408 3.0344920557 3.0044116246 3.0113367874 2.9894734702 
2.9986507637 3.0125452616 3.0463310066 3.0687760567 3.0466143331 3.1010154904 3.0685826102 3.0874521261 3.1038099903 
3.1160967331 3.129215528 3.1425840714 3.1560637715 3.1671358159 3.1764741583 3.1748944342 3.1663705933 3.1522861601 
3.1434322652 3.1357366671 3.1294634438 3.1229626311 3.1172400435 3.1118264855 3.0945406703 3.090858097 3.085358464 
3.0778529448 3.0674029622 3.0573608552 3.0487467095 3.0414319061 3.0290821501 3.1049249368 3.1299507755 3.1462674421 
3.1600012309 3.1701387275 3.1821141509 3.1946808223 3.2047802864 3.2187481 3.2319454647 3.2447460598 3.2553700502 
3.2613412387 3.2694413242 3.275368064 3.2771116676 3.2781064972 3.0734087584 3.0752654483 3.0747654146 3.0728243246 
3.069083104 3.062527143 3.0542636939 3.0463930062 3.0386054763 3.0324608399 3.035668974 3.2786882904 3.2727207691 
3.1269330814 3.2761396285 3.1200510316 3.0703410035 3.0751217999 3.2650943724 3.1078955088 3.1041221585 3.2772112704 
3.0990490018 3.0742270333 3.0745273307 3.1147782748 3.2775186482 3.0653228946 3.074170536 3.0754750256 3.0751212767 
3.0974278027 3.0230476581 3.0332676691 3.0040541098 3.0113541981 2.9894777134 2.9993390489 3.0133047991 3.0461305001 
3.069341837 3.0450544792 3.1017357674 3.0666728087 3.0856720899 3.1020844295 3.1145919806 3.1276851804 3.1404051605 
3.1552315822 3.1659098678 3.1760692783 3.1760069204 3.1683586554 3.1543405169 3.1445474095 3.1365115206 3.1299733438 
3.1236501621 3.1188611513 3.1129490177 3.0951415943 3.0913642931 3.085877131 3.0782090068 3.0675795672 3.0574319882 
3.0487943204 3.0412805194 3.0285688674 3.1059204872 3.1311710272 3.1475574213 3.1613480843 3.1716557521 3.1839057747 
3.196528309 3.2067821471 3.2208548933 3.2343742744 3.2477918801 3.2580025979 3.2644985189 3.2730170053 3.2800958598 
3.2817580252 3.2816945045 3.0751737588 3.077380545 3.0770598865 3.0748391174 3.0709495618 3.0643884059 3.0561762737 
3.0483903734 3.0404318459 3.0344571341 3.0370991404 3.2845635548 3.2766908633 3.1276700091 3.2808443458 3.1208040253 
3.0722299798 3.0765496982 3.2683034586 3.1089554412 3.1047897221 3.2816443027 3.0996136454 3.0764568002 3.0770164735 
3.1159786538 3.2816052337 3.0643414644 3.0749522148 3.0776107373 3.0773032372 3.0976220748 3.0238050162 3.0314943891 
3.0022080757 3.0077363074 2.9876245234 2.9990522707 3.0133907444 3.0475680316 3.0701799832 3.0430651209 3.1016494369 
3.0651876862 3.0839305765 3.1010710239 3.1127275724 3.1260064559 3.1377631894 3.155042157 3.1658762626 3.177066916 
3.1798219446 3.1716870179 3.1575358093 3.1456868707 3.1372781158 3.1307154445 3.1240471835 3.1182599429 3.1131552343 
3.0955071504 3.0915607823 3.0861385964 3.0785824829 3.0676005148 3.0571242607 3.048381362 3.0406436828 3.0269414014 
3.1075956528 3.1325978698 3.149380612 3.1639801803 3.1741284226 3.1862766415 3.1987064003 3.2096464517 3.224636311 
3.2387733624 3.2522461941 3.2658808367 3.2699185548 3.2777491829 3.2831821837 3.2829265779 3.2839637347 3.0764852646 
3.0804307361 3.0800864239 3.0780955947 3.0740951067 3.0680271578 3.0592636564 3.0515330256 3.0437475523 3.0371858564 
3.0404190203 3.0666664646 3.281109211 3.1278467934 3.2834130434 3.1211068037 3.0725757897 3.0794697577 3.2732333258 
3.1087219911 3.1047648399 3.2822521236 3.0998053678 3.0794821633 3.0799503127 3.1156059226 3.2811903455 3.0761526654 
3.0770144683 3.0798987139 3.0800368168 3.0976845136 3.0265879112 3.0330868528 3.0049847748 3.0096604233 2.9899806834 
3.0043145775 3.0180413203 3.0555202166 3.074731465 3.0454123794 3.1010810615 3.061927585 3.0820068695 3.099243872 
3.1130269801 3.1262900146 3.1383278335 3.1584694538 3.1780795831 3.183480642 3.1828526405 3.1733735466 3.1575187714 
3.1454666509 3.136798142 3.1298160769 3.1227012773 3.1160940321 3.1109338139 3.0948507152 3.0922858217 3.0869159263 
3.0776335032 3.0680548844 3.0566901795 3.0475432755 3.0388518296 3.0257250956 3.1088652554 3.1347463713 3.1561052879 
3.1703629201 3.1794852434 3.1965424849 3.2057195679 3.2158538741 3.2341447612 3.2464672142 3.2625737959 3.2710034177 