# vtk DataFile Version 4.2
vtk output
ASCII
DATASET POLYDATA
POINTS 6886 float
1476.82 -3774.18 0 1479.82 -3777.45 0 1485.88 -3774.18 0 
1466.06 -3757.18 0 1516.51 -3757.18 0 1455.35 -3740.18 0 
1516.82 -3757.05 0 1548.01 -3740.18 0 1444.64 -3723.18 0 
1553.82 -3737.03 0 1579.43 -3723.18 0 1433.93 -3706.18 0 
1442.82 -3720.29 0 1590.82 -3717.01 0 1610.85 -3706.17 0 
1423.23 -3689.18 0 1627.83 -3696.99 0 1642.27 -3689.17 0 
1412.52 -3672.18 0 1664.83 -3676.97 0 1673.7 -3672.17 0 
1401.81 -3655.18 0 1405.82 -3661.55 0 1701.83 -3656.95 0 
1705.12 -3655.17 0 1391.1 -3638.18 0 1736.54 -3638.17 0 
1380.39 -3621.18 0 1738.83 -3636.93 0 1767.96 -3621.17 0 
1369.69 -3604.18 0 1775.84 -3616.91 0 1799.39 -3604.16 0 
1358.98 -3587.17 0 1368.83 -3602.81 0 1812.84 -3596.89 0 
1835.33 -3587.16 0 1348.27 -3570.17 0 1849.84 -3578.95 0 
1876.87 -3570.16 0 1337.56 -3553.17 0 1886.84 -3563.32 0 
1923.84 -3556.74 0 1943.53 -3553.16 0 1326.86 -3536.17 0 
1331.83 -3544.07 0 1960.84 -3550.01 0 1997.85 -3543.27 0 
2034.85 -3536.54 0 2036.95 -3536.15 0 1316.15 -3519.17 0 
2071.85 -3529.8 0 2108.85 -3523.07 0 2130.38 -3519.15 0 
1305.44 -3502.17 0 2145.85 -3516.33 0 2182.85 -3509.6 0 
2219.85 -3502.86 0 2223.8 -3502.15 0 1294.73 -3485.17 0 
1294.83 -3485.33 0 2256.86 -3496.13 0 2293.86 -3489.4 0 
2317.22 -3485.14 0 1284.02 -3468.17 0 2330.86 -3482.66 0 
2367.86 -3475.93 0 2404.86 -3469.19 0 2405.45 -3468.14 0 
1273.32 -3451.17 0 2414.57 -3451.14 0 1262.61 -3434.17 0 
2422.74 -3434.14 0 1251.9 -3417.17 0 1257.83 -3426.58 0 
2429.95 -3417.14 0 1241.19 -3400.17 0 2437.21 -3400.13 0 
1230.49 -3383.17 0 2441.87 -3389.24 0 2444.48 -3383.13 0 
1219.75 -3366.17 0 1220.83 -3367.84 0 2451.74 -3366.13 0 
1209.07 -3349.16 0 2459 -3349.13 0 1198.36 -3332.16 0 
2466.26 -3332.13 0 1187.65 -3315.16 0 2473.52 -3315.13 0 
1176.78 -3298.16 0 1183.84 -3309.1 0 2478.87 -3302.6 0 
2480.79 -3298.13 0 1166.24 -3281.16 0 2488.05 -3281.13 0 
1155.53 -3264.16 0 2495.31 -3264.12 0 1144.62 -3247.16 0 
1146.84 -3250.36 0 2493.62 -3247.12 0 1133.8 -3230.16 0 
2485.66 -3230.12 0 1123.41 -3213.16 0 2478.88 -3221.88 0 
2471.68 -3213.12 0 1112.7 -3196.16 0 2457.7 -3196.12 0 
1101.2 -3179.16 0 1109.84 -3191.62 0 2443.72 -3179.12 0 
1090.81 -3162.16 0 2441.88 -3176.88 0 2431.52 -3162.12 0 
1080.58 -3145.16 0 2426.68 -3145.12 0 1069.3 -3128.16 0 
1072.84 -3132.88 0 2430.86 -3128.12 0 1057.77 -3111.15 0 
2435.03 -3111.12 0 1047.82 -3094.15 0 2439.21 -3094.12 0 
1037.75 -3077.15 0 2441.88 -3083.2 0 2443.38 -3077.11 0 
1025.36 -3060.15 0 1035.85 -3074.14 0 2447.55 -3060.11 0 
1014.33 -3043.15 0 2451.73 -3043.11 0 1004.83 -3026.15 0 
2455.9 -3026.11 0 993.754 -3009.15 0 998.85 -3016 0 
2460.07 -3009.11 0 981.407 -2992.15 0 2464.25 -2992.11 0 
970.894 -2975.15 0 2468.42 -2975.11 0 961.835 -2958.15 0 
961.852 -2958.18 0 2472.59 -2958.11 0 954.161 -2941.15 0 
2476.77 -2941.11 0 948.774 -2924.15 0 2478.89 -2932.44 0 
2480.94 -2924.1 0 939.482 -2907.15 0 2485.12 -2907.1 0 
935.129 -2890.14 0 2489.29 -2890.1 0 925.605 -2873.14 0 
2493.46 -2873.1 0 916.963 -2856.14 0 924.856 -2871.79 0 
2497.64 -2856.1 0 911.688 -2839.14 0 2501.81 -2839.1 0 
905.213 -2822.14 0 2505.98 -2822.1 0 898.486 -2805.14 0 
2510.16 -2805.1 0 891.758 -2788.14 0 2514.33 -2788.1 0 
885.031 -2771.14 0 887.861 -2778.29 0 2515.9 -2781.69 0 
2518.5 -2771.09 0 878.304 -2754.14 0 2522.68 -2754.09 0 
871.577 -2737.14 0 2526.85 -2737.09 0 864.85 -2720.14 0 
2531.03 -2720.09 0 858.123 -2703.14 0 2535.2 -2703.09 0 
851.396 -2686.14 0 2539.37 -2686.09 0 844.669 -2669.13 0 
850.865 -2684.79 0 2543.55 -2669.09 0 837.942 -2652.13 0 
2547.72 -2652.09 0 831.215 -2635.13 0 2551.89 -2635.09 0 
824.488 -2618.13 0 2552.91 -2630.93 0 2556.07 -2618.08 0 
817.761 -2601.13 0 2560.24 -2601.08 0 811.034 -2584.13 0 
813.87 -2591.3 0 2564.42 -2584.08 0 804.307 -2567.13 0 
2568.59 -2567.08 0 797.58 -2550.13 0 2572.76 -2550.08 0 
790.853 -2533.13 0 2576.94 -2533.08 0 784.126 -2516.13 0 
2581.11 -2516.08 0 777.399 -2499.13 0 2585.28 -2499.08 0 
770.672 -2482.13 0 776.874 -2497.8 0 2589.46 -2482.08 0 
763.945 -2465.12 0 2589.92 -2480.18 0 2593.63 -2465.07 0 
757.218 -2448.12 0 2597.8 -2448.07 0 750.491 -2431.12 0 
2601.98 -2431.07 0 743.764 -2414.12 0 2606.15 -2414.07 0 
737.037 -2397.12 0 739.879 -2404.3 0 2610.33 -2397.07 0 
730.31 -2380.12 0 2614.5 -2380.07 0 723.583 -2363.12 0 
2618.67 -2363.07 0 716.856 -2346.12 0 2622.85 -2346.07 0 
710.129 -2329.12 0 2626.93 -2329.42 0 2627.02 -2329.07 0 
703.402 -2312.12 0 2631.19 -2312.06 0 696.675 -2295.12 0 
702.883 -2310.81 0 2635.37 -2295.06 0 689.948 -2278.12 0 
2639.54 -2278.06 0 683.221 -2261.11 0 2643.72 -2261.06 0 
676.494 -2244.11 0 2647.89 -2244.06 0 669.767 -2227.11 0 
2652.06 -2227.06 0 663.096 -2210.11 0 665.888 -2217.31 0 
2650.3 -2210.06 0 657.711 -2193.11 0 2646.44 -2193.06 0 
655.146 -2176.11 0 2641.35 -2176.06 0 652.581 -2159.11 0 
2638.03 -2159.06 0 650.016 -2142.11 0 2635.32 -2142.05 0 
647.451 -2125.11 0 2633.05 -2125.05 0 644.885 -2108.11 0 
2630.78 -2108.05 0 642.32 -2091.11 0 2628.51 -2091.05 0 
639.755 -2074.1 0 2626.95 -2079.39 0 2626.42 -2074.05 0 
637.19 -2057.1 0 2624.77 -2057.05 0 634.625 -2040.1 0 
2623.17 -2040.05 0 632.059 -2023.1 0 2621.61 -2023.05 0 
629.494 -2006.1 0 2620.1 -2006.05 0 626.956 -1989.1 0 
628.899 -2002.16 0 2618.62 -1989.05 0 624.543 -1972.1 0 
2617.41 -1972.05 0 622.252 -1955.1 0 2616.34 -1955.04 0 
620.074 -1938.1 0 2615.26 -1938.04 0 618.002 -1921.1 0 
2614.18 -1921.04 0 616.027 -1904.1 0 2613.11 -1904.04 0 
614.143 -1887.09 0 2612.03 -1887.04 0 612.693 -1870.09 0 
2610.96 -1870.04 0 611.372 -1853.09 0 2609.88 -1853.04 0 
610.05 -1836.09 0 2608.8 -1836.04 0 608.729 -1819.09 0 
2607.73 -1819.04 0 607.407 -1802.09 0 2606.65 -1802.04 0 
606.085 -1785.09 0 2605.57 -1785.03 0 604.764 -1768.09 0 
2604.5 -1768.03 0 603.442 -1751.09 0 2603.42 -1751.03 0 
602.121 -1734.09 0 2602.34 -1734.03 0 600.799 -1717.08 0 
2601.27 -1717.03 0 599.386 -1700.08 0 2600.19 -1700.03 0 
597.721 -1683.08 0 1293.31 -1683.06 0 1294.94 -1684.03 0 
1331.94 -1685.25 0 1368.94 -1686.47 0 1405.94 -1687.69 0 
1442.94 -1688.9 0 1479.94 -1690.12 0 1516.94 -1691.34 0 
1553.94 -1692.56 0 1590.94 -1693.78 0 1627.94 -1695 0 
1664.95 -1691.2 0 1674.55 -1683.05 0 2599.12 -1683.03 0 
596.057 -1666.08 0 1268.87 -1666.06 0 1688.6 -1666.05 0 
2598.04 -1666.03 0 594.393 -1649.08 0 1254.31 -1649.06 0 
1257.94 -1655.24 0 1701.95 -1652.87 0 1705.88 -1649.05 0 
2596.96 -1649.03 0 592.728 -1632.08 0 1243.85 -1632.06 0 
1724.7 -1632.05 0 2595.89 -1632.03 0 591.064 -1615.08 0 
591.92 -1623.83 0 1230.44 -1615.06 0 1738.95 -1619.18 0 
1743.52 -1615.05 0 2594.81 -1615.02 0 589.399 -1598.08 0 
1213.84 -1598.06 0 1220.94 -1605.33 0 1762.35 -1598.05 0 
2593.73 -1598.02 0 587.735 -1581.08 0 1197.24 -1581.06 0 
1775.95 -1585.76 0 1781.17 -1581.04 0 2592.66 -1581.02 0 
586.07 -1564.08 0 1180.65 -1564.06 0 1183.94 -1567.43 0 
1799.99 -1564.04 0 2591.58 -1564.02 0 584.406 -1547.08 0 
1164.05 -1547.06 0 1812.96 -1552.33 0 1818.82 -1547.04 0 
2590.64 -1547.02 0 -481.103 -1531.07 0 -483.192 -1530.1 0 
-475.913 -1530.1 0 582.742 -1530.07 0 1147.45 -1530.06 0 
1837.64 -1530.04 0 2591.65 -1530.02 0 -518.103 -1513.89 0 
-519.798 -1513.1 0 -444.102 -1523.57 0 -413.261 -1513.1 0 
581.077 -1513.07 0 1130.86 -1513.06 0 1146.94 -1529.53 0 
1849.96 -1516.57 0 1851.67 -1513.04 0 2592.67 -1513.02 0 
-555.103 -1496.71 0 -556.403 -1496.1 0 -407.1 -1511.01 0 
-370.098 -1498.45 0 -363.179 -1496.1 0 579.413 -1496.07 0 
1114.26 -1496.06 0 1857.59 -1496.04 0 2593.7 -1496.02 0 
-592.103 -1479.52 0 -593.008 -1479.1 0 -333.096 -1485.89 0 
-313.097 -1479.1 0 577.748 -1479.07 0 1097.66 -1479.06 0 
1109.94 -1491.63 0 1863.51 -1479.04 0 2594.73 -1479.02 0 
-629.103 -1462.34 0 -629.613 -1462.1 0 -296.095 -1473.32 0 
-263.014 -1462.09 0 576.084 -1462.07 0 1081.07 -1462.06 0 
1869.44 -1462.04 0 2595.53 -1462.02 0 -666.103 -1445.16 0 
-666.218 -1445.1 0 -259.093 -1460.76 0 -222.091 -1448.2 0 
-212.932 -1445.09 0 573.556 -1445.07 0 1064.18 -1445.06 0 
1072.94 -1453.73 0 1875.36 -1445.03 0 2595.71 -1445.01 0 
-695.528 -1428.1 0 -185.089 -1435.64 0 -148.088 -1428.31 0 
-111.087 -1431.96 0 -74.0864 -1434.77 0 -65.8306 -1428.09 0 
570.011 -1428.07 0 1045.1 -1428.06 0 1881.28 -1428.03 0 
2595.85 -1428.01 0 -703.103 -1420.95 0 -710.293 -1411.1 0 
-48.5848 -1411.08 0 567.196 -1411.07 0 1022.96 -1411.06 0 
1035.94 -1420.7 0 1886.97 -1411.7 0 1887.2 -1411.03 0 
2593.97 -1411.01 0 -722.7 -1394.1 0 -37.0833 -1399.5 0 
-33.6908 -1394.08 0 564.907 -1394.07 0 1000.09 -1394.06 0 
1893.12 -1394.03 0 2590.82 -1394.01 0 -735.107 -1377.1 0 
-22.5305 -1377.08 0 563.008 -1377.07 0 986.009 -1377.05 0 
998.945 -1393.21 0 1899.05 -1377.03 0 2589.99 -1389.52 0 
2587.65 -1377.01 0 -740.101 -1370.26 0 -747.513 -1360.1 0 
-10.2706 -1360.08 0 561.409 -1360.06 0 972.33 -1360.05 0 
1904.97 -1360.03 0 2584.52 -1360.01 0 -759.92 -1343.1 0 
-0.0792375 -1347.12 0 2.69662 -1343.08 0 558.068 -1343.06 0 
959.204 -1343.05 0 961.947 -1347.2 0 1910.89 -1343.03 0 
2581.37 -1343.01 0 -772.327 -1326.1 0 14.3837 -1326.08 0 
554.098 -1326.06 0 554.937 -1329.11 0 947.968 -1326.05 0 
1916.81 -1326.03 0 2578.22 -1326.01 0 -777.099 -1319.56 0 
-784.734 -1309.1 0 26.0708 -1309.08 0 549.066 -1309.06 0 
936.731 -1309.05 0 1922.73 -1309.03 0 2575.07 -1309.01 0 
-797.141 -1292.1 0 36.9249 -1293.29 0 37.7579 -1292.07 0 
543.174 -1292.06 0 925.495 -1292.05 0 1923.98 -1305.46 0 
1928.66 -1292.02 0 2571.92 -1292.01 0 -809.548 -1275.1 0 
49.445 -1275.07 0 539.134 -1275.06 0 914.258 -1275.05 0 
924.949 -1291.23 0 1934.58 -1275.02 0 2568.77 -1275.01 0 
-814.097 -1268.86 0 -821.954 -1258.1 0 61.1321 -1258.07 0 
535.259 -1258.06 0 903.022 -1258.05 0 1940.5 -1258.02 0 
2565.61 -1258 0 -834.361 -1241.1 0 72.8192 -1241.07 0 
531.395 -1241.06 0 891.785 -1241.05 0 1948.61 -1241.02 0 
2562.46 -1241 0 -846.768 -1224.09 0 73.9291 -1239.46 0 
84.5063 -1224.07 0 527.54 -1224.06 0 881.065 -1224.05 0 
887.951 -1235.25 0 1957.96 -1224.02 0 2559.31 -1224 0 
-851.095 -1218.17 0 -859.175 -1207.09 0 96.1934 -1207.07 0 
[...]
POINT_DATA 6886
SCALARS Pressure double
LOOKUP_TABLE default
3.0932710339 3.0932710339 3.0932710339 3.0932710339 3.0932710339 3.0932710339 3.0932710339 3.0932710339 3.0932710339 
3.0932710339 3.0932710339 3.0932710339 3.0932710339 3.0932710339 3.0932710339 3.0932710339 3.0932710339 3.0932710339 
3.0932710339 3.0932710339 3.0932710339 3.0932710339 3.0932710339 3.0932710339 3.0932710339 3.0932710339 3.0932710339 
3.0932710339 3.0932710339 3.0932710339 3.0932710339 3.0932710339 3.0932710339 3.0932710339 3.0932710339 3.0932710339 
3.0932710339 3.0932710339 3.0932710339 3.0932710339 3.0932710339 3.0932710339 3.0932710339 3.0932710339 3.0932710339 
3.0932710339 3.0932710339 3.0932710339 3.0932710339 3.0932710339 3.0932710339 3.0932710339 3.0932710339 3.0932710339 
3.0932710339 3.0932710339 3.0932710339 3.0932710339 3.0932710339 3.0932710339 3.0932710339 3.0932710339 3.0932710339 
3.0932710339 3.0932710339 3.0932710339 3.0932710339 3.0932710339 3.0932710339 3.0932710339 3.0932710339 3.0932710339 
3.0932710339 3.0932710339 3.0932710339 3.0932710339 3.0932710339 3.0932710339 3.0932710339 3.0932710339 3.0932710339 
3.0932710339 3.0932710339 3.0932710339 3.0932710339 3.0932710339 3.0932710339 3.0932710339 3.0932710339 3.0932710339 
3.0932710339 3.0932710339 3.0932710339 3.0932710339 3.0932710339 3.0932710339 3.0932710339 3.0932710339 3.0932710339 
3.0932710339 3.0932710339 3.0932710339 3.0932710339 3.0932710339 3.0932710339 3.0932710339 3.0932710339 3.0932710339 
3.0932710339 3.0932710339 3.0932710339 3.0932710339 3.0932710339 3.0932710339 3.0932710339 3.0932710339 3.0932710339 
3.0932710339 3.0932710339 3.0932710339 3.0932710339 3.0932710339 3.0932710339 3.0932710339 3.0932710339 3.0932710339 
3.0932710339 3.0932710339 3.0932710339 3.0932710339 3.0932710339 3.0932710339 3.0932710339 3.0932710339 3.0932710339 
3.0932710339 3.0932710339 3.0932710339 3.0932710339 3.0932710339 3.0932710339 3.0932710339 3.0932710339 3.0932710339 
3.0932710339 3.0932710339 3.0932710339 3.0932710339 3.0932710339 3.0932710339 3.0932710339 3.0932710339 3.0932710339 
3.0932710339 3.0932710339 3.0932710339 3.0932710339 3.0932710339 3.0932710339 3.0932710339 3.0932710339 3.0932710339 
3.0932710339 3.0932710339 3.0932710339 3.0932710339 3.0932710339 3.0932710339 3.0932710339 3.0932710339 3.0932710339 
3.0932710339 3.0932710339 3.0932710339 3.0932710339 3.0932710339 3.0932710339 3.0932710339 3.0932710339 3.0932710339 
3.0932710339 3.0932710339 3.0932710339 3.0932710339 3.0932710339 3.0932710339 3.0932710339 3.0932710339 3.0932710339 
3.0932710339 3.0932710339 3.0932710339 3.0932710339 3.0932710339 3.0932710339 3.0932710339 3.0932710339 3.0932710339 
3.0932710339 3.0932710339 3.0932710339 3.0932710339 3.0932710339 3.0932710339 3.0932710339 3.0932710339 3.0932710339 
3.0932710339 3.0932710339 3.0932710339 3.0932710339 3.0932710339 3.0932710339 3.0932710339 3.0932710339 3.0932710339 
3.0932710339 3.0932710339 3.0932710339 3.0932710339 3.0932710339 3.0932710339 3.0932710339 3.0932710339 3.0932710339 
3.0932710339 3.0932710339 3.0932710339 3.0932710339 3.0932710339 3.0932710339 3.0932710339 3.0932710339 3.0932710339 
3.0932710339 3.0932710339 3.0932710339 3.0932710339 3.0932710339 3.0932710339 3.0932710339 3.0932710339 3.0932710339 
3.0932710339 3.0932710339 3.0932710339 3.0932710339 3.0932710339 3.0932710339 3.0932710339 3.0932710339 3.0932710339 
3.0932710339 3.0932710339 3.0932710339 3.0932710339 3.0932710339 3.0932710339 3.0932710339 3.0932710339 3.0932710339 
3.0932710339 3.0932710339 3.0932710339 3.0932710339 3.0932710339 3.0932710339 3.0932710339 3.0932710339 3.0932710339 
3.0932710339 3.0932710339 3.0932710339 3.0932710339 3.0932710339 3.0932710339 3.0932710339 3.0932710339 3.0932710339 
3.0932710339 3.0932710339 3.0932710339 3.0932710339 3.0932710339 3.0932710339 3.0932710339 3.0932710339 3.0932710339 
3.0932710339 3.0932710339 3.0932710339 3.0932710339 3.0932710339 3.0932710339 3.0932710339 3.0932710339 3.0932710339 
3.0932710339 3.0932710339 3.0932710339 3.0932710339 3.0932710339 3.0932710339 3.0932710339 3.0932710339 3.0932710339 
3.0932710339 3.1078652246 3.1078652246 3.1078652246 3.1078652246 3.1078652246 3.1078652246 3.1078652246 3.1078652246 
3.1078652246 3.1078652246 3.1078652246 3.1078652246 3.1078652246 3.0932710339 3.0932710339 3.1078652246 3.1078652246 
3.0932710339 3.0932710339 3.1078652246 3.1078652246 3.1078652246 3.1078652246 3.0932710339 3.0932710339 3.1078652246 
3.1078652246 3.0932710339 3.0932710339 3.0932710339 3.1078652246 3.1078652246 3.1078652246 3.0932710339 3.0932710339 
3.1078652246 3.1078652246 3.1078652246 3.0932710339 3.0932710339 3.1078652246 3.1078652246 3.1078652246 3.0932710339 
3.0932710339 3.1078652246 3.1078652246 3.1078652246 3.0932710339 3.0932710339 3.1078652246 3.1078652246 3.1078652246 
3.0932710339 3.0786768432 3.0786768432 3.0786768432 3.0932710339 3.1078652246 3.1078652246 3.0932710339 3.0786768432 
3.0786768432 3.0786768432 3.0786768432 3.0932710339 3.1078652246 3.1078652246 3.1078652246 3.1078652246 3.0932710339 
3.0786768432 3.0786768432 3.0786768432 3.0786768432 3.0786768432 3.0932710339 3.1078652246 3.1078652246 3.0932710339 
3.0786768432 3.0786768432 3.0786768432 3.0786768432 3.0932710339 3.1078652246 3.1078652246 3.1078652246 3.0932710339 
3.0786768432 3.0786768432 3.0786768432 3.0786768432 3.0932710339 3.1078652246 3.1078652246 3.0932710339 3.0786768432 
3.0786768432 3.0786768432 3.0786768432 3.0786768432 3.0932710339 3.1078652246 3.1078652246 3.1078652246 3.0932710339 
3.0786768432 3.0786768432 3.0786768432 3.0786768432 3.0786768432 3.0786768432 3.0932710339 3.1078652246 3.1078652246 
3.0932710339 3.0786768432 3.0786768432 3.0786768432 3.0932710339 3.1078652246 3.1078652246 3.1078652246 3.1078652246 
3.0932710339 3.0786768432 3.0786768432 3.0786768432 3.0932710339 3.1078652246 3.1078652246 3.0932710339 3.0786768432 
3.0786768432 3.0932710339 3.1078652246 3.1078652246 3.1078652246 3.0932710339 3.0932710339 3.0786768432 3.0786768432 
3.0786768432 3.0932710339 3.1078652246 3.1078652246 3.0932710339 3.0786768432 3.0786768432 3.0786768432 3.0932710339 
3.1078652246 3.1078652246 3.1078652246 3.0932710339 3.0786768432 3.0786768432 3.0932710339 3.0932710339 3.1078652246 
3.1078652246 3.0932710339 3.0786768432 3.0786768432 3.0786768432 3.0932710339 3.1078652246 3.1078652246 3.0932710339 
3.0786768432 3.0786768432 3.0786768432 3.0932710339 3.1078652246 3.1078652246 3.1078652246 3.0932710339 3.0786768432 
3.0786768432 3.0932710339 3.1078652246 3.1078652246 3.1078652246 3.0932710339 3.0786768432 3.0786768432 3.0786768432 
3.0932710339 3.1078652246 3.1078652246 3.0932710339 3.0786768432 3.0786768432 3.0932710339 3.1078652246 3.1078652246 
3.0932710339 3.0786768432 3.0786768432 3.0786768432 3.0932710339 3.1078652246 3.1078652246 3.1078652246 3.0932710339 
3.0786768432 3.0786768432 3.0786768432 3.0932710339 3.1078652246 3.1078652246 3.1078652246 3.0932710339 3.0786768432 
3.0786768432 3.0932710339 3.1078652246 3.1078652246 3.0932710339 3.0786768432 3.0786768432 3.0786768432 3.0932710339 
3.0932710339 3.1078652246 3.1078652246 3.0932710339 3.0932710339 3.0786768432 3.0786768432 3.0786768432 3.0932710339 
3.1078652246 3.1078652246 3.1078652246 3.0932710339 3.0786768432 3.0786768432 3.0932710339 3.1078652246 3.1078652246 
3.0932710339 3.0786768432 3.0786768432 3.0786768432 3.0932710339 3.1078652246 3.1078652246 3.0932710339 3.0786768432 
3.0786768432 3.0932710339 3.1078652246 3.1078652246 3.0932710339 3.0786768432 3.0786768432 3.0786768432 3.0932710339 
3.1078652246 3.1078652246 3.1078652246 3.1078652246 3.0932710339 3.0786768432 3.0786768432 3.0932710339 3.1078652246 
3.1078652246 3.0932710339 3.0786768432 3.0786768432 3.0786768432 3.0932710339 3.1078652246 3.1078652246 3.0932710339 
3.0786768432 3.0786768432 3.0932710339 3.1078652246 3.1078652246 3.0932710339 3.0786768432 3.0786768432 3.0786768432 
3.0932710339 3.0932710339 3.1078652246 3.1078652246 3.1224594153 3.1224594153 3.1224594153 3.1224594153 3.1224594153 
3.1224594153 3.1078652246 3.0932710339 3.0786768432 3.0786768432 3.0932710339 3.1078652246 3.1224594153 3.1224594153 
3.1224594153 3.1224594153 3.1224594153 3.1078652246 3.0932710339 3.0786768432 3.0786768432 3.0932710339 3.1078652246 
3.1224594153 3.1224594153 3.1224594153 3.1078652246 3.0932710339 3.0786768432 3.0786768432 3.0932710339 3.1078652246 
3.1224594153 3.1224594153 3.1224594153 3.1224594153 3.1078652246 3.0932710339 3.0786768432 3.0786768432 3.0932710339 
3.1078652246 3.1078652246 3.1224594153 3.1224594153 3.1224594153 3.1078652246 3.1078652246 3.0932710339 3.0786768432 
3.0786768432 3.0932710339 3.1078652246 3.1224594153 3.1224594153 3.1224594153 3.1224594153 3.1078652246 3.0932710339 
3.0786768432 3.0786768432 3.0786768432 3.0932710339 3.1078652246 3.1224594153 3.1224594153 3.1224594153 3.1078652246 
3.0932710339 3.0786768432 3.0786768432 3.0932710339 3.1078652246 3.1224594153 3.1224594153 3.1224594153 3.1078652246 
3.0932710339 3.0786768432 3.0786768432 3.0932710339 3.1078652246 3.1078652246 3.1224594153 3.1224594153 3.1224594153 
3.1078652246 3.0932710339 3.0786768432 3.0786768432 3.0932710339 3.1078652246 3.1224594153 3.1224594153 3.1078652246 
3.0932710339 3.0932710339 3.0786768432 3.0786768432 3.0932710339 3.1078652246 3.1224594153 3.1224594153 3.1224594153 
3.1224594153 3.1078652246 3.0932710339 3.0786768432 3.0786768432 3.0932710339 3.0932710339 3.1078652246 3.1224594153 
3.1224594153 3.1078652246 3.0932710339 3.0786768432 3.0786768432 3.0932710339 3.1078652246 3.1078652246 3.1224594153 
3.1224594153 3.1078652246 3.0932710339 3.0786768432 3.0786768432 3.0786768432 3.0932710339 3.1078652246 3.1224594153 
3.1224594153 3.1224594153 3.1224594153 3.1078652246 3.1078652246 3.0932710339 3.0786768432 3.0786768432 3.0932710339 
3.1078652246 3.1224594153 3.1224594153 3.1078652246 3.0932710339 3.0786768432 3.0786768432 3.0932710339 3.1078652246 
3.1224594153 3.1224594153 3.1078652246 3.0932710339 3.0786768432 3.0786768432 3.0932710339 3.1078652246 3.1078652246 
3.1224594153 3.1224594153 3.1224594153 3.1078652246 3.0932710339 3.0786768432 3.0786768432 3.0786768432 3.0786768432 
3.0640826525 3.0640826525 3.0640826525 3.0640826525 3.0640826525 3.0640826525 3.0640826525 3.0786768432 3.0932710339 
3.1078652246 3.1224594153 3.1224594153 3.1224594153 3.1078652246 3.0932710339 3.0786768432 3.0786768432 3.0786768432 
3.0786768432 3.0786768432 3.0640826525 3.0640826525 3.0640826525 3.0640826525 3.0786768432 3.0932710339 3.1078652246 
3.1224594153 3.1224594153 3.1224594153 3.1078652246 3.0932710339 3.0786768432 3.0786768432 3.0786768432 3.0786768432 
3.0786768432 3.0786768432 3.0640826525 3.0640826525 3.0640826525 3.0786768432 3.0786768432 3.0932710339 3.1078652246 
3.1224594153 3.1224594153 3.1078652246 3.0932710339 3.0786768432 3.0786768432 3.0786768432 3.0786768432 3.0786768432 
3.0640826525 3.0640826525 3.0640826525 3.0640826525 3.0786768432 3.0932710339 3.1078652246 3.1078652246 3.1224594153 
3.1224594153 3.1224594153 3.1078652246 3.0932710339 3.0786768432 3.0786768432 3.0786768432 3.0786768432 3.0786768432 
3.0640826525 3.0640826525 3.0786768432 3.0932710339 3.1078652246 3.1224594153 3.1224594153 3.1224594153 3.1078652246 
3.0932710339 3.0786768432 3.0786768432 3.0786768432 3.0786768432 3.0786768432 3.0640826525 3.0640826525 3.0640826525 
3.0786768432 3.0932710339 3.0932710339 3.1078652246 3.1224594153 3.1224594153 3.1078652246 3.0932710339 3.0786768432 
3.0786768432 3.0786768432 3.0786768432 3.0640826525 3.0640826525 3.0640826525 3.0786768432 3.0932710339 3.1078652246 
3.1224594153 3.1224594153 3.137053606 3.137053606 3.137053606 3.137053606 3.137053606 3.1224594153 3.1078652246 
3.1078652246 3.0932710339 3.0786768432 3.0786768432 3.0786768432 3.0786768432 3.0640826525 3.0640826525 3.0786768432 
3.0932710339 3.1078652246 3.1224594153 3.137053606 3.137053606 3.137053606 3.137053606 3.137053606 3.1224594153 
3.1078652246 3.0932710339 3.0786768432 3.0786768432 3.0786768432 3.0786768432 3.0786768432 3.0786768432 3.0640826525 
3.0640826525 3.0640826525 3.0640826525 3.0786768432 3.0932710339 3.1078652246 3.1224594153 3.137053606 3.137053606 
3.137053606 3.1224594153 3.1224594153 3.1078652246 3.0932710339 3.0786768432 3.0786768432 3.0786768432 3.0786768432 
3.0640826525 3.0640826525 3.0786768432 3.0932710339 3.1078652246 3.1224594153 3.1224594153 3.137053606 3.137053606 
3.137053606 3.1224594153 3.1078652246 3.0932710339 3.0786768432 3.0786768432 3.0786768432 3.0640826525 3.0640826525 
3.0640826525 3.0786768432 3.0932710339 3.1078652246 3.1078652246 3.1224594153 3.137053606 3.137053606 3.137053606 
3.1224594153 3.1078652246 3.0932710339 3.0786768432 3.0786768432 3.0786768432 3.0640826525 3.0640826525 3.0640826525 
3.0786768432 3.0932710339 3.1078652246 3.1224594153 3.137053606 3.137053606 3.137053606 3.1224594153 3.1078652246 
3.0932710339 3.0786768432 3.0786768432 3.0786768432 3.0786768432 3.0786768432 3.0640826525 3.0640826525 3.0786768432 
3.0932710339 3.1078652246 3.1224594153 3.1224594153 3.137053606 3.137053606 3.137053606 3.1224594153 3.1078652246 
3.0932710339 3.0786768432 3.0786768432 3.0786768432 3.0640826525 3.0640826525 3.0786768432 3.0932710339 3.1078652246 
3.1078652246 3.1224594153 3.137053606 3.137053606 3.137053606 3.1224594153 3.1078652246 3.0932710339 3.0932710339 
3.0786768432 3.0786768432 3.0786768432 3.0640826525 3.0640826525 3.0786768432 3.0932710339 3.0932710339 3.1078652246 
3.1224594153 3.1224594153 3.137053606 3.137053606 3.137053606 3.137053606 3.1224594153 3.1224594153 3.1078652246 
3.0932710339 3.0786768432 3.0786768432 3.0786768432 3.0786768432 3.0640826525 3.0640826525 3.0786768432 3.0932710339 
3.1078652246 3.1224594153 3.137053606 3.137053606 3.1224594153 3.1078652246 3.0932710339 3.0786768432 3.0786768432 
3.0786768432 3.0640826525 3.0640826525 3.0640826525 3.0640826525 3.0786768432 3.0932710339 3.1078652246 3.1224594153 
3.137053606 3.137053606 3.137053606 3.1224594153 3.1078652246 3.0932710339 3.0786768432 3.0786768432 3.0786768432 
3.0640826525 3.0640826525 3.0786768432 3.0932710339 3.1078652246 3.1078652246 3.1224594153 3.1224594153 3.137053606 
3.137053606 3.137053606 3.1224594153 3.1078652246 3.0932710339 3.0786768432 3.0786768432 3.0786768432 3.0786768432 
3.0786768432 3.0640826525 3.0494884618 3.0494884618 3.0494884618 3.0494884618 3.0494884618 3.0640826525 3.0786768432 
3.0932710339 3.1078652246 3.1224594153 3.137053606 3.137053606 3.137053606 3.1224594153 3.1078652246 3.0932710339 
3.0786768432 3.0786768432 3.0786768432 3.0640826525 3.0494884618 3.0494884618 3.0494884618 3.0494884618 3.0640826525 
3.0786768432 3.0932710339 3.1078652246 3.1224594153 3.137053606 3.137053606 3.137053606 3.1224594153 3.1078652246 
3.0932710339 3.0786768432 3.0786768432 3.0786768432 3.0640826525 3.0494884618 3.0494884618 3.0494884618 3.0640826525 
3.0786768432 3.0932710339 3.0932710339 3.1078652246 3.1224594153 3.1224594153 3.137053606 3.137053606 3.1224594153 
3.1078652246 3.0932710339 3.0786768432 3.0786768432 3.0786768432 3.0786768432 3.0640826525 3.0494884618 3.0494884618 
3.0494884618 3.0640826525 3.0786768432 3.0932710339 3.1078652246 3.1078652246 3.1224594153 3.137053606 3.137053606 
3.137053606 3.1224594153 3.1078652246 3.0932710339 3.0786768432 3.0786768432 3.0786768432 3.0640826525 3.0640826525 
3.0494884618 3.0494884618 3.0494884618 3.0640826525 3.0786768432 3.0932710339 3.1078652246 3.1224594153 3.137053606 
3.137053606 3.1224594153 3.1078652246 3.0932710339 3.0786768432 3.0786768432 3.0786768432 3.0786768432 3.0640826525 
3.0494884618 3.0494884618 3.0640826525 3.0786768432 3.0786768432 3.0932710339 3.1078652246 3.1224594153 3.137053606 
3.137053606 3.1224594153 3.1078652246 3.0932710339 3.0786768432 3.0786768432 3.0786768432 3.0786768432 3.0640826525 
3.0494884618 3.0494884618 3.0494884618 3.0494884618 3.0640826525 3.0786768432 3.0932710339 3.1078652246 3.1078652246 
3.1224594153 3.1224594153 3.137053606 3.137053606 3.137053606 3.137053606 3.1224594153 3.1078652246 3.0932710339 
3.0786768432 3.0786768432 3.0786768432 3.0640826525 3.0494884618 3.0494884618 3.0640826525 3.0786768432 3.0932710339 
3.1078652246 3.1224594153 3.137053606 3.137053606 3.1224594153 3.1078652246 3.0932710339 3.0932710339 3.0786768432 
3.0786768432 3.0786768432 3.0786768432 3.0640826525 3.0494884618 3.0494884618 3.0640826525 3.0786768432 3.0932710339 
3.0932710339 3.1078652246 3.1224594153 3.137053606 3.137053606 3.1224594153 3.1078652246 3.0932710339 3.0786768432 
3.0786768432 3.0786768432 3.0786768432 3.0786768432 3.0640826525 3.0494884618 3.0494884618 3.0494884618 3.0640826525 
3.0786768432 3.0932710339 3.1078652246 3.1224594153 3.1224594153 3.137053606 3.1516477967 3.1516477967 3.1516477967 
3.137053606 3.1224594153 3.1078652246 3.0932710339 3.0786768432 3.0786768432 3.0786768432 3.0786768432 3.0640826525 
3.0494884618 3.0348942711 3.0348942711 3.0348942711 3.0348942711 3.0494884618 3.0640826525 3.0786768432 3.0932710339 
3.1078652246 3.1224594153 3.137053606 3.137053606 3.1516477967 3.1516477967 3.1516477967 3.137053606 3.1224594153 
3.1078652246 3.0932710339 3.0786768432 3.0786768432 3.0786768432 3.0786768432 3.0640826525 3.0640826525 3.0494884618 
3.0348942711 3.0348942711 3.0348942711 3.0348942711 3.0494884618 3.0494884618 3.0640826525 3.0786768432 3.0932710339 
3.1078652246 3.1078652246 3.1224594153 3.137053606 3.1516477967 3.1516477967 3.137053606 3.1224594153 3.1078652246 
3.0932710339 3.0786768432 3.0640826525 3.0640826525 3.0640826525 3.0640826525 3.0640826525 3.0786768432 3.0786768432 
3.0786768432 3.0640826525 3.0494884618 3.0348942711 3.0348942711 3.0348942711 3.0494884618 3.0640826525 3.0786768432 
3.0932710339 3.1078652246 3.1224594153 3.137053606 3.1516477967 3.1516477967 3.1516477967 3.137053606 3.1224594153 
3.1078652246 3.0932710339 3.0786768432 3.0640826525 3.0640826525 3.0640826525 3.0640826525 3.0786768432 3.0786768432 
3.0640826525 3.0494884618 3.0348942711 3.0348942711 3.0348942711 3.0494884618 3.0640826525 3.0786768432 3.0932710339 
3.1078652246 3.1224594153 3.137053606 3.1516477967 3.1516477967 3.137053606 3.1224594153 3.1078652246 3.0932710339 
3.0786768432 3.0786768432 3.0640826525 3.0640826525 3.0640826525 3.0786768432 3.0786768432 3.0786768432 3.0640826525 
3.0494884618 3.0348942711 3.0348942711 3.0494884618 3.0640826525 3.0786768432 3.0786768432 3.0932710339 3.1078652246 
3.1224594153 3.137053606 3.137053606 3.1516477967 3.1516477967 3.137053606 3.1224594153 3.1078652246 3.0932710339 
3.0786768432 3.0640826525 3.0640826525 3.0640826525 3.0640826525 3.0786768432 3.0786768432 3.0786768432 3.0640826525 
3.0494884618 3.0348942711 3.0348942711 3.0203000804 3.0203000804 3.0203000804 3.0203000804 3.0348942711 3.0348942711 
3.0494884618 3.0640826525 3.0786768432 3.0932710339 3.1078652246 3.1224594153 3.137053606 2.9619233175 2.9619233175 
2.9765175082 2.9765175082 2.991111699 2.991111699 3.0057058897 3.0057058897 3.0203000804 3.0203000804 3.0348942711 
3.0348942711 3.0494884618 3.0494884618 3.0640826525 3.0640826525 3.0786768432 3.0786768432 3.0932710339 3.0932710339 
3.1078652246 3.1078652246 3.1224594153 3.1224594153 3.137053606 3.137053606 2.9619233175 2.9765175082 2.991111699 
3.0057058897 3.0203000804 3.0348942711 3.0494884618 3.0640826525 3.0786768432 3.0932710339 3.1078652246 3.1224594153 
3.137053606 2.9619233175 2.9765175082 2.991111699 3.0057058897 3.0203000804 3.0348942711 3.0494884618 3.0640826525 
3.0786768432 3.0932710339 3.1078652246 3.1224594153 3.137053606 2.9619233175 2.9765175082 2.991111699 3.0057058897 
3.0203000804 3.0348942711 3.0494884618 3.0640826525 3.0786768432 3.0932710339 3.1078652246 3.1224594153 3.137053606 
2.9619233175 2.9765175082 2.991111699 3.0057058897 3.0203000804 3.0348942711 3.0494884618 3.0640826525 3.0786768432 
3.0932710339 3.1078652246 3.1224594153 3.137053606 2.9619233175 2.9765175082 2.991111699 3.0057058897 3.0203000804 
3.0348942711 3.0494884618 3.0640826525 3.0786768432 3.0932710339 3.1078652246 3.1224594153 3.137053606 2.9619233175 