# vtk DataFile Version 4.2
vtk output
ASCII
DATASET POLYDATA
POINTS 6280 float
2231.68 -3237.17 5800 2232.83 -3239.17 5800 2239.12 -3250.17 5800 
2956.09 -3250.15 5800 2957.85 -3249.24 5800 2984.96 -3237.15 5800 
2224.51 -3224.17 5800 2986.85 -3235.59 5800 2992.86 -3224.14 5800 
2217.81 -3211.17 5800 2998.39 -3211.14 5800 2211.11 -3198.17 5800 
3004.39 -3198.14 5800 2204.41 -3185.17 5800 3010.65 -3185.14 5800 
2197.7 -3172.17 5800 2203.83 -3184.05 5800 3015.86 -3174.31 5800 
3016.9 -3172.14 5800 2191 -3159.17 5800 3023.16 -3159.14 5800 
2184.3 -3146.17 5800 3029.41 -3146.14 5800 2177.6 -3133.17 5800 
3035.67 -3133.14 5800 2170.89 -3120.17 5800 2174.83 -3127.81 5800 
3041.93 -3120.14 5800 2164.19 -3107.16 5800 3044.87 -3114.02 5800 
3048.18 -3107.13 5800 2157.49 -3094.16 5800 3054.44 -3094.13 5800 
2150.79 -3081.16 5800 3060.69 -3081.13 5800 2144.09 -3068.16 5800 
2145.84 -3071.56 5800 3066.95 -3068.13 5800 2137.38 -3055.16 5800 
3073.2 -3055.13 5800 2130.68 -3042.16 5800 3073.87 -3053.74 5800 
3079.46 -3042.13 5800 2123.98 -3029.16 5800 3085.71 -3029.13 5800 
2117.28 -3016.16 5800 3091.97 -3016.13 5800 2110.57 -3003.16 5800 
2116.84 -3015.31 5800 3098.22 -3003.12 5800 2103.87 -2990.16 5800 
3102.88 -2993.45 5800 3104.48 -2990.12 5800 2097.17 -2977.16 5800 
3110.73 -2977.12 5800 2090.47 -2964.16 5800 3116.99 -2964.12 5800 
2083.61 -2951.16 5800 2087.84 -2959.07 5800 3123.24 -2951.12 5800 
2076.57 -2938.15 5800 3129.5 -2938.12 5800 2069.45 -2925.15 5800 
3131.88 -2932.88 5800 3135.23 -2925.12 5800 2062.23 -2912.15 5800 
3140.61 -2912.12 5800 2054.94 -2899.15 5800 2058.85 -2906.11 5800 
3145.99 -2899.11 5800 2045.54 -2886.15 5800 3151.36 -2886.11 5800 
2023.25 -2873.15 5800 2029.85 -2876.75 5800 3156.74 -2873.11 5800 
1999.38 -2860.15 5800 2000.85 -2860.95 5800 3160.89 -2863.08 5800 
3162.12 -2860.11 5800 1975.52 -2847.15 5800 3167.49 -2847.11 5800 
1951.65 -2834.15 5800 1971.85 -2845.15 5800 3172.87 -2834.11 5800 
1927.79 -2821.15 5800 1942.85 -2829.36 5800 3178.25 -2821.11 5800 
1903.92 -2808.15 5800 1913.85 -2813.56 5800 3183.62 -2808.11 5800 
1883.34 -2795.15 5800 1884.85 -2797.76 5800 3189 -2795.1 5800 
1877.72 -2782.15 5800 3189.9 -2792.94 5800 3194.38 -2782.1 5800 
1877.13 -2769.15 5800 3199.75 -2769.1 5800 1877.32 -2756.15 5800 
3205.13 -2756.1 5800 1877.51 -2743.15 5800 3210.51 -2743.1 5800 
1877.71 -2730.15 5800 3215.88 -2730.1 5800 1877.9 -2717.14 5800 
3218.9 -2722.8 5800 3221.26 -2717.1 5800 1878.09 -2704.14 5800 
3226.64 -2704.1 5800 1878.28 -2691.14 5800 3232.01 -2691.1 5800 
1878.47 -2678.14 5800 3237.39 -2678.09 5800 1878.66 -2665.14 5800 
3242.77 -2665.09 5800 1878.85 -2652.14 5800 3247.91 -2652.66 5800 
3248.14 -2652.09 5800 1879.04 -2639.14 5800 3253.52 -2639.09 5800 
1879.24 -2626.14 5800 3258.9 -2626.09 5800 1879.43 -2613.14 5800 
3264.27 -2613.09 5800 1879.62 -2600.14 5800 3269.65 -2600.09 5800 
1879.81 -2587.13 5800 3275.03 -2587.09 5800 1880 -2574.13 5800 
3276.91 -2582.53 5800 3280.27 -2574.08 5800 1880.19 -2561.13 5800 
3285.52 -2561.08 5800 1880.38 -2548.13 5800 3290.84 -2548.08 5800 
1880.58 -2535.13 5800 3296.26 -2535.08 5800 1880.77 -2522.13 5800 
3301.76 -2522.08 5800 1880.96 -2509.13 5800 3305.92 -2512.39 5800 
3307.02 -2509.08 5800 1881.15 -2496.13 5800 3311.15 -2496.08 5800 
1881.34 -2483.13 5800 3315.38 -2483.08 5800 1881.53 -2470.13 5800 
3319.66 -2470.08 5800 1881.72 -2457.12 5800 3324 -2457.07 5800 
1881.91 -2444.12 5800 3324.36 -2444.07 5800 1882.11 -2431.12 5800 
3321.2 -2431.07 5800 1882.31 -2418.12 5800 3318.84 -2418.07 5800 
1882.52 -2405.12 5800 3318.7 -2405.07 5800 1882.73 -2392.12 5800 
3319.44 -2392.07 5800 1882.93 -2379.12 5800 3320.17 -2379.07 5800 
1883.29 -2366.12 5800 3320.89 -2366.07 5800 1883.74 -2353.12 5800 
3321.6 -2353.07 5800 1884.18 -2340.11 5800 3322.34 -2340.07 5800 
1884.62 -2327.11 5800 3322.93 -2327.06 5800 1884.89 -2319.37 5800 
1885.07 -2314.11 5800 3323.51 -2314.06 5800 1885.51 -2301.11 5800 
3324.1 -2301.06 5800 1885.95 -2288.11 5800 3324.69 -2288.06 5800 
1886.39 -2275.11 5800 3325.28 -2275.06 5800 1886.84 -2262.11 5800 
3325.87 -2262.06 5800 1887.28 -2249.11 5800 3326.45 -2249.06 5800 
1887.72 -2236.11 5800 3327.04 -2236.06 5800 1888.17 -2223.11 5800 
3327.63 -2223.06 5800 1888.61 -2210.1 5800 3328.22 -2210.06 5800 
1889.05 -2197.1 5800 3328.81 -2197.05 5800 1889.49 -2184.1 5800 
3329.39 -2184.05 5800 1889.94 -2171.1 5800 3329.98 -2171.05 5800 
1890.38 -2158.1 5800 3330.57 -2158.05 5800 1890.82 -2145.1 5800 
3331.16 -2145.05 5800 1891.27 -2132.1 5800 3331.74 -2132.05 5800 
1891.71 -2119.1 5800 3332.33 -2119.05 5800 1892.15 -2106.1 5800 
3332.92 -2106.05 5800 1892.59 -2093.1 5800 3333.51 -2093.05 5800 
1893.04 -2080.09 5800 3334.1 -2080.04 5800 1893.48 -2067.09 5800 
3334.68 -2067.04 5800 1893.92 -2054.09 5800 3334.96 -2061.02 5800 
3335.27 -2054.04 5800 1892.06 -2041.09 5800 3335.86 -2041.04 5800 
1888.84 -2028.09 5800 3336.45 -2028.04 5800 1885.61 -2015.09 5800 
3337.04 -2015.04 5800 1882.39 -2002.09 5800 1884.91 -2012.27 5800 
3337.62 -2002.04 5800 1879.16 -1989.09 5800 3338.21 -1989.04 5800 
1875.93 -1976.09 5800 3338.8 -1976.04 5800 1872.71 -1963.09 5800 
3339.36 -1963.04 5800 1869.48 -1950.09 5800 3339.78 -1950.03 5800 
1866.26 -1937.08 5800 3340.17 -1937.03 5800 1863.03 -1924.08 5800 
3340.55 -1924.03 5800 1859.81 -1911.08 5800 3340.93 -1911.03 5800 
1856.58 -1898.08 5800 3341.31 -1898.03 5800 1854.43 -1885.08 5800 
1855.92 -1895.4 5800 3341.69 -1885.03 5800 1855.92 -1872.86 5800 
1856.06 -1872.08 5800 3342.07 -1872.03 5800 1859.85 -1859.08 5800 
3342.45 -1859.03 5800 1862.35 -1846.08 5800 3342.83 -1846.03 5800 
1865.55 -1833.08 5800 3343.21 -1833.03 5800 1868.73 -1820.08 5800 
3343.59 -1820.02 5800 1871.91 -1807.07 5800 3343.97 -1807.02 5800 
1875.09 -1794.07 5800 3344.36 -1794.02 5800 1878.28 -1781.07 5800 
3344.74 -1781.02 5800 1881.46 -1768.07 5800 3345.12 -1768.02 5800 
1884.64 -1755.07 5800 3345.5 -1755.02 5800 1884.93 -1753.87 5800 
1887.82 -1742.07 5800 3345.88 -1742.02 5800 1891 -1729.07 5800 
3346.26 -1729.02 5800 1894.18 -1716.07 5800 3346.64 -1716.02 5800 
1897.36 -1703.07 5800 3347.02 -1703.02 5800 1900.54 -1690.06 5800 
3347.4 -1690.01 5800 1903.72 -1677.06 5800 3347.78 -1677.01 5800 
1906.9 -1664.06 5800 3348.16 -1664.01 5800 1910.08 -1651.06 5800 
3348.15 -1651.01 5800 1913.27 -1638.06 5800 3345.26 -1638.01 5800 
1913.94 -1635.3 5800 1916.45 -1625.06 5800 3339.33 -1625.01 5800 
1919.64 -1612.06 5800 3334.99 -1616.33 5800 3332.83 -1612.01 5800 
1922.93 -1599.06 5800 3326.33 -1599.01 5800 1926.18 -1586.06 5800 
3319.83 -1586.01 5800 1929.43 -1573.05 5800 3314.31 -1573.01 5800 
1932.72 -1560.05 5800 3311.49 -1560.01 5800 1936.01 -1547.05 5800 
3309.7 -1547 5800 1939.3 -1534.05 5800 3307.94 -1534 5800 
1942.58 -1521.05 5800 3306.19 -1521 5800 1942.95 -1519.42 5800 
1945.41 -1508.05 5800 3306 -1519.61 5800 3304.88 -1508 5800 
1946.44 -1495.05 5800 3303.77 -1495 5800 1947.47 -1482.05 5800 
3302.78 -1482 5800 1948.51 -1469.05 5800 3301.89 -1469 5800 
1949.54 -1456.04 5800 3301.09 -1456 5800 1950.57 -1443.04 5800 
3301.47 -1443 5800 1951.61 -1430.04 5800 3301.91 -1430 5800 
1952.64 -1417.04 5800 3302.35 -1417 5800 1953.67 -1404.04 5800 
3302.79 -1403.99 5800 1954.71 -1391.04 5800 3303.23 -1390.99 5800 
1955.74 -1378.04 5800 3303.67 -1377.99 5800 1956.77 -1365.04 5800 
3304.11 -1364.99 5800 1957.8 -1352.04 5800 3304.55 -1351.99 5800 
1958.69 -1339.04 5800 3304.99 -1338.99 5800 1959.33 -1326.03 5800 
3305.43 -1325.99 5800 1959.97 -1313.03 5800 3305.87 -1312.99 5800 
1960.61 -1300.03 5800 3306.01 -1308.74 5800 3306.31 -1299.99 5800 
1961.25 -1287.03 5800 3306.75 -1286.98 5800 1961.89 -1274.03 5800 
3307.19 -1273.98 5800 1962.53 -1261.03 5800 3307.63 -1260.98 5800 
1963.17 -1248.03 5800 3308.08 -1247.98 5800 1963.81 -1235.03 5800 
3308.53 -1234.98 5800 1964.45 -1222.03 5800 3308.99 -1221.98 5800 
1965.46 -1209.03 5800 3309.44 -1208.98 5800 1966.35 -1196.02 5800 
3309.94 -1195.98 5800 1967.16 -1183.02 5800 3310.49 -1182.98 5800 
1968.52 -1170.02 5800 3311.04 -1169.98 5800 1970.38 -1157.02 5800 
3311.59 -1156.97 5800 1971.98 -1145.77 5800 1972.24 -1144.02 5800 
3312.14 -1143.97 5800 1974.08 -1131.02 5800 3312.69 -1130.97 5800 
1975.94 -1118.02 5800 3313.24 -1117.97 5800 1977.79 -1105.02 5800 
3313.6 -1104.97 5800 1986.15 -1092.02 5800 3313.63 -1091.97 5800 
1995.33 -1079.01 5800 3313.67 -1078.97 5800 1999.75 -1066.01 5800 
3313.71 -1065.97 5800 2000.99 -1061.55 5800 2002.55 -1053.01 5800 
2552.97 -1052.99 5800 2581.01 -1063 5800 2607.07 -1052.99 5800 
3313.75 -1052.97 5800 2005.02 -1040.01 5800 2541.95 -1039.99 5800 
2552.01 -1052.62 5800 2610.01 -1051.97 5800 2639.01 -1045 5800 
2667.25 -1039.99 5800 3313.79 -1039.97 5800 2007.6 -1027.01 5800 
2525.5 -1026.99 5800 2668.01 -1039.85 5800 2697.01 -1034.7 5800 
2726.01 -1029.55 5800 2741.65 -1026.98 5800 3313.83 -1026.96 5800 
2010.3 -1014.01 5800 2505.06 -1013.99 5800 2523.01 -1025.41 5800 
2755.02 -1024.73 5800 2763.69 -1013.98 5800 3313.99 -1013.96 5800 
2013.14 -1001.01 5800 2484.61 -1000.99 5800 2494.01 -1006.97 5800 
2772.81 -1000.98 5800 3313.4 -1000.96 5800 2016.12 -988.006 5800 
2464.17 -987.991 5800 2465.01 -988.524 5800 2780.49 -987.98 5800 
3312.85 -987.962 5800 2019.25 -975.005 5800 2443.29 -974.991 5800 
2784.02 -981.03 5800 2787.02 -974.979 5800 3312.16 -974.961 5800 
2022.55 -962.004 5800 2421.85 -961.99 5800 2436.01 -970.573 5800 
2793.46 -961.978 5800 3309.4 -961.96 5800 2025.48 -949.003 5800 
2402.9 -948.99 5800 2407.01 -952.994 5800 2799.93 -948.976 5800 
3306.67 -948.959 5800 2028.31 -936.002 5800 2391.96 -935.99 5800 
2806.47 -935.975 5800 3306.04 -945.974 5800 3304.01 -935.958 5800 
2030 -928.224 5800 2030.65 -923.001 5800 2383.67 -922.989 5800 
2812.79 -922.974 5800 3301.38 -922.957 5800 2032.31 -910 5800 
2377.26 -909.988 5800 2378.01 -911.855 5800 2813.03 -922.472 5800 
2819.22 -909.973 5800 3298.75 -909.956 5800 2034.03 -896.999 5800 
2372.03 -896.987 5800 2825.66 -896.972 5800 3296.12 -896.955 5800 
[...]
POINT_DATA 6280
SCALARS Pressure double
LOOKUP_TABLE default
3.0932710339 3.0932710339 3.0932710339 3.0932710339 3.0932710339 3.0932710339 3.0932710339 3.0932710339 3.0932710339 
3.0932710339 3.0932710339 3.0932710339 3.0932710339 3.0932710339 3.0932710339 3.0932710339 3.0932710339 3.0932710339 
3.0932710339 3.0932710339 3.0932710339 3.0932710339 3.0932710339 3.0932710339 3.0932710339 3.0932710339 3.0932710339 
3.0932710339 3.0932710339 3.0932710339 3.0932710339 3.0932710339 3.0932710339 3.0932710339 3.0932710339 3.0932710339 
3.0932710339 3.0932710339 3.0932710339 3.0932710339 3.0932710339 3.0932710339 3.0932710339 3.0932710339 3.0932710339 
3.0932710339 3.0932710339 3.0932710339 3.0932710339 3.0932710339 3.0932710339 3.0932710339 3.0932710339 3.0932710339 
3.0932710339 3.0932710339 3.0932710339 3.0932710339 3.0932710339 3.0932710339 3.0932710339 3.0932710339 3.0932710339 
3.0932710339 3.0932710339 3.0932710339 3.0932710339 3.0932710339 3.0932710339 3.0932710339 3.0932710339 3.0932710339 
3.0932710339 3.0932710339 3.0932710339 3.0932710339 3.0932710339 3.0932710339 3.0932710339 3.0932710339 3.0932710339 
3.0932710339 3.0932710339 3.0932710339 3.0932710339 3.0932710339 3.0932710339 3.0932710339 3.0932710339 3.0932710339 
3.0932710339 3.0932710339 3.0932710339 3.0932710339 3.0932710339 3.0932710339 3.0932710339 3.0932710339 3.0932710339 
3.0932710339 3.0932710339 3.0932710339 3.0932710339 3.0932710339 3.0932710339 3.0932710339 3.0932710339 3.0932710339 
3.0932710339 3.0932710339 3.0932710339 3.0932710339 3.0932710339 3.0932710339 3.0932710339 3.0932710339 3.0932710339 
3.0932710339 3.0932710339 3.0932710339 3.0932710339 3.0932710339 3.0932710339 3.0932710339 3.0932710339 3.0932710339 
3.0932710339 3.0932710339 3.0932710339 3.0932710339 3.0932710339 3.0932710339 3.0932710339 3.0932710339 3.0932710339 
3.0932710339 3.0932710339 3.0932710339 3.0932710339 3.0932710339 3.0932710339 3.0932710339 3.0932710339 3.0932710339 
3.0932710339 3.0932710339 3.0932710339 3.0932710339 3.0932710339 3.0932710339 3.0932710339 3.0932710339 3.0932710339 
3.0932710339 3.0932710339 3.0932710339 3.0932710339 3.0932710339 3.0932710339 3.0932710339 3.0932710339 3.0932710339 
3.0932710339 3.0932710339 3.0932710339 3.0932710339 3.0932710339 3.0932710339 3.0932710339 3.0932710339 3.0932710339 
3.0932710339 3.0932710339 3.0932710339 3.0932710339 3.0932710339 3.0932710339 3.0932710339 3.0932710339 3.0932710339 
3.0932710339 3.0932710339 3.0932710339 3.0932710339 3.0932710339 3.0932710339 3.0932710339 3.0932710339 3.0932710339 
3.0932710339 3.0932710339 3.0932710339 3.0932710339 3.0932710339 3.0932710339 3.0932710339 3.0932710339 3.0932710339 
3.0932710339 3.0932710339 3.0932710339 3.0932710339 3.0932710339 3.0932710339 3.0932710339 3.0932710339 3.0932710339 
3.0932710339 3.0932710339 3.0932710339 3.0932710339 3.0932710339 3.0932710339 3.0932710339 3.0932710339 3.0932710339 
3.0932710339 3.0932710339 3.0932710339 3.0932710339 3.0932710339 3.0932710339 3.0932710339 3.0932710339 3.0932710339 
3.0932710339 3.0932710339 3.0932710339 3.0932710339 3.0932710339 3.0932710339 3.0932710339 3.0932710339 3.0932710339 
3.0932710339 3.0932710339 3.0932710339 3.0932710339 3.0932710339 3.0932710339 3.0932710339 3.0932710339 3.0932710339 
3.0932710339 3.0932710339 3.0932710339 3.0932710339 3.0932710339 3.0932710339 3.0932710339 3.0932710339 3.0932710339 
3.0932710339 3.0932710339 3.0932710339 3.0932710339 3.0932710339 3.0932710339 3.0932710339 3.0932710339 3.0932710339 
3.0932710339 3.0932710339 3.0932710339 3.0932710339 3.0932710339 3.0932710339 3.0932710339 3.0932710339 3.0932710339 
3.0932710339 3.0932710339 3.0932710339 3.0932710339 3.0932710339 3.0932710339 3.0932710339 3.0932710339 3.0932710339 
3.0932710339 3.0932710339 3.0932710339 3.0932710339 3.0932710339 3.0932710339 3.0932710339 3.0932710339 3.0932710339 
3.0932710339 3.0932710339 3.0932710339 3.0932710339 3.0932710339 3.0932710339 3.0932710339 3.0932710339 3.0932710339 
3.0932710339 3.0932710339 3.0932710339 3.0932710339 3.0932710339 3.0932710339 3.0932710339 3.0932710339 3.0932710339 
3.0932710339 3.0932710339 3.0932710339 3.0932710339 3.0932710339 3.0932710339 3.0932710339 3.0932710339 3.0932710339 
3.0932710339 3.0932710339 3.0932710339 3.0932710339 3.0932710339 3.0932710339 3.0932710339 3.0932710339 3.0932710339 
3.0932710339 3.0932710339 3.0932710339 3.0932710339 3.0932710339 3.0932710339 3.0932710339 3.0932710339 3.0932710339 
3.0932710339 3.0932710339 3.0932710339 3.0932710339 3.0932710339 3.0932710339 3.0932710339 3.0932710339 3.0932710339 
3.0932710339 3.0932710339 3.0932710339 3.0932710339 3.0932710339 3.0932710339 3.0932710339 3.0932710339 3.0932710339 
3.0932710339 3.0932710339 3.0932710339 3.0932710339 3.0932710339 3.0932710339 3.0932710339 3.0932710339 3.0932710339 
3.0932710339 3.0932710339 3.0932710339 3.0932710339 3.0932710339 3.0932710339 3.0932710339 3.0932710339 3.0932710339 
3.0932710339 3.0932710339 3.0932710339 3.0932710339 3.0932710339 3.0932710339 3.0932710339 3.0932710339 3.0932710339 
3.1078652246 3.1078652246 3.1078652246 3.0932710339 3.0932710339 3.1078652246 3.1078652246 3.1078652246 3.1078652246 
3.1078652246 3.0932710339 3.0932710339 3.1078652246 3.1078652246 3.1078652246 3.1078652246 3.1078652246 3.0932710339 
3.0932710339 3.1078652246 3.1078652246 3.1078652246 3.1078652246 3.0932710339 3.0932710339 3.1078652246 3.1078652246 
3.1078652246 3.0932710339 3.0932710339 3.1078652246 3.1078652246 3.1078652246 3.0932710339 3.0932710339 3.1078652246 
3.1078652246 3.1078652246 3.0932710339 3.0932710339 3.1078652246 3.1078652246 3.1078652246 3.0932710339 3.0932710339 
3.1078652246 3.1078652246 3.1078652246 3.0932710339 3.0932710339 3.1078652246 3.1078652246 3.0932710339 3.0932710339 
3.0932710339 3.0932710339 3.1078652246 3.1078652246 3.0932710339 3.0932710339 3.1078652246 3.1078652246 3.1078652246 
3.1078652246 3.0932710339 3.0932710339 3.1078652246 3.1078652246 3.0932710339 3.0932710339 3.1078652246 3.1078652246 
3.0932710339 3.0932710339 3.1078652246 3.1078652246 3.0932710339 3.0932710339 3.1078652246 3.1078652246 3.1078652246 
3.0932710339 3.0932710339 3.1078652246 3.1078652246 3.1078652246 3.0932710339 3.0932710339 3.1078652246 3.1078652246 
3.0932710339 3.0932710339 3.1078652246 3.1078652246 3.0932710339 3.0932710339 3.1078652246 3.1078652246 3.1078652246 
3.0932710339 3.0932710339 3.1078652246 3.1078652246 3.1078652246 3.0932710339 3.0932710339 3.0932710339 3.1078652246 
3.1078652246 3.0932710339 3.0932710339 3.1078652246 3.1078652246 3.1078652246 3.0932710339 3.0932710339 3.1078652246 
3.1078652246 3.1078652246 3.0932710339 3.0932710339 3.1078652246 3.1078652246 3.0932710339 3.0932710339 3.1078652246 
3.1078652246 3.0932710339 3.0932710339 3.0932710339 3.1078652246 3.1078652246 3.0932710339 3.0932710339 3.1078652246 
3.1078652246 3.0932710339 3.0932710339 3.1078652246 3.1078652246 3.1078652246 3.0932710339 3.0932710339 3.1078652246 
3.1224594153 3.1224594153 3.1224594153 3.1224594153 3.1078652246 3.0932710339 3.0932710339 3.1078652246 3.1224594153 
3.1224594153 3.1224594153 3.1224594153 3.1078652246 3.0932710339 3.0932710339 3.1078652246 3.1224594153 3.1224594153 
3.1224594153 3.1078652246 3.0932710339 3.0932710339 3.1078652246 3.1224594153 3.1224594153 3.1224594153 3.1078652246 
3.0932710339 3.0932710339 3.1078652246 3.1224594153 3.1224594153 3.1224594153 3.1078652246 3.1078652246 3.0932710339 
3.0932710339 3.1078652246 3.1224594153 3.1224594153 3.1224594153 3.1224594153 3.1078652246 3.0932710339 3.0932710339 
3.1078652246 3.1078652246 3.1224594153 3.1224594153 3.1078652246 3.0932710339 3.0932710339 3.1078652246 3.1224594153 
3.1224594153 3.1224594153 3.1224594153 3.1078652246 3.0932710339 3.0932710339 3.1078652246 3.1224594153 3.1224594153 
3.1078652246 3.0932710339 3.0932710339 3.0932710339 3.1078652246 3.1224594153 3.1224594153 3.1224594153 3.1078652246 
3.1078652246 3.0932710339 3.0932710339 3.1078652246 3.1224594153 3.1224594153 3.1224594153 3.1078652246 3.0932710339 
3.0932710339 3.1078652246 3.1224594153 3.1224594153 3.1224594153 3.1078652246 3.0932710339 3.0932710339 3.1078652246 
3.1224594153 3.1224594153 3.1078652246 3.0932710339 3.0932710339 3.1078652246 3.1078652246 3.1224594153 3.1224594153 
3.1078652246 3.0932710339 3.0786768432 3.0786768432 3.0786768432 3.0786768432 3.0932710339 3.1078652246 3.1224594153 
3.1224594153 3.1224594153 3.1078652246 3.1078652246 3.0932710339 3.0786768432 3.0786768432 3.0786768432 3.0932710339 
3.1078652246 3.1224594153 3.1224594153 3.1224594153 3.1078652246 3.0932710339 3.0786768432 3.0786768432 3.0786768432 
3.0786768432 3.0786768432 3.0786768432 3.0786768432 3.0786768432 3.0786768432 3.0786768432 3.0786768432 3.0932710339 
3.1078652246 3.1224594153 3.137053606 3.137053606 3.137053606 3.137053606 3.1224594153 3.1078652246 3.0932710339 
3.0786768432 3.0786768432 3.0786768432 3.0786768432 3.0786768432 3.0786768432 3.0786768432 3.0932710339 3.1078652246 
3.1224594153 3.137053606 3.137053606 3.137053606 3.137053606 3.1224594153 3.1078652246 3.0932710339 3.0786768432 
3.0786768432 3.0786768432 3.0786768432 3.0786768432 3.0786768432 3.0786768432 3.0786768432 3.0932710339 3.1078652246 
3.1224594153 3.137053606 3.137053606 3.137053606 3.137053606 3.1224594153 3.1224594153 3.1078652246 3.0932710339 
3.0786768432 3.0786768432 3.0786768432 3.0786768432 3.0786768432 3.0932710339 3.1078652246 3.1224594153 3.1224594153 
3.137053606 3.137053606 3.1224594153 3.1078652246 3.0932710339 3.0786768432 3.0786768432 3.0786768432 3.0786768432 
3.0786768432 3.0786768432 3.0786768432 3.0932710339 3.0932710339 3.1078652246 3.1224594153 3.137053606 3.137053606 
3.137053606 3.137053606 3.1224594153 3.1078652246 3.1078652246 3.0932710339 3.0786768432 3.0786768432 3.0786768432 
3.0786768432 3.0786768432 3.0932710339 3.1078652246 3.1224594153 3.137053606 3.137053606 3.1224594153 3.1078652246 
3.0932710339 3.0786768432 3.0786768432 3.0786768432 3.0786768432 3.0786768432 3.0786768432 3.0932710339 3.1078652246 
3.1224594153 3.137053606 3.137053606 3.137053606 3.1224594153 3.1224594153 3.1078652246 3.0932710339 3.0786768432 
3.0786768432 3.0786768432 3.0786768432 3.0786768432 3.0786768432 3.0932710339 3.1078652246 3.1224594153 3.137053606 
3.137053606 3.137053606 3.1224594153 3.1078652246 3.0932710339 3.0786768432 3.0786768432 3.0786768432 3.0786768432 
3.0786768432 3.0786768432 3.0932710339 3.1078652246 3.1224594153 3.137053606 3.137053606 3.1224594153 3.1078652246 
3.0932710339 3.0932710339 3.0786768432 3.0786768432 3.0786768432 3.0786768432 3.0786768432 3.0932710339 3.1078652246 
3.1224594153 3.1224594153 3.137053606 3.137053606 3.137053606 3.1224594153 3.1078652246 3.0932710339 3.0786768432 
3.0786768432 3.0786768432 3.0786768432 3.0786768432 3.0786768432 3.0932710339 3.1078652246 3.1224594153 3.137053606 
3.137053606 3.1224594153 3.1224594153 3.1078652246 3.0932710339 3.0786768432 3.0786768432 3.0786768432 3.0786768432 
3.0786768432 3.0932710339 3.1078652246 3.1224594153 3.137053606 3.1516477967 3.1516477967 3.1516477967 3.1516477967 
3.1516477967 3.137053606 3.1224594153 3.1078652246 3.1078652246 3.0932710339 3.0786768432 3.0786768432 3.0786768432 
3.0786768432 3.0786768432 3.0786768432 3.0932710339 3.1078652246 3.1224594153 3.137053606 3.137053606 3.1516477967 
3.1516477967 3.1516477967 3.137053606 3.137053606 3.1224594153 3.1078652246 3.0932710339 3.0786768432 3.0786768432 
3.0786768432 3.0786768432 3.0786768432 3.0932710339 3.1078652246 3.1078652246 3.1224594153 3.137053606 3.1516477967 
3.1516477967 3.1516477967 3.137053606 3.1224594153 3.1078652246 3.0932710339 3.0786768432 3.0786768432 3.0786768432 
3.0786768432 3.0932710339 3.1078652246 3.1224594153 3.137053606 3.1516477967 3.1516477967 3.1516477967 3.137053606 
3.1224594153 3.1078652246 3.0932710339 3.0786768432 3.0786768432 3.0786768432 3.0786768432 3.0786768432 3.0786768432 
3.0786768432 3.0932710339 3.1078652246 3.1224594153 3.1224594153 3.137053606 3.1516477967 3.1516477967 3.1516477967 
3.137053606 3.1224594153 3.1078652246 3.0932710339 3.0786768432 3.0786768432 3.0786768432 3.0786768432 3.0932710339 
3.1078652246 3.1224594153 3.137053606 3.137053606 3.1516477967 3.1516477967 3.1516477967 3.137053606 3.1224594153 
3.1078652246 3.0932710339 3.0932710339 3.0786768432 3.0786768432 3.0786768432 3.0786768432 3.0932710339 3.1078652246 
3.1224594153 3.137053606 3.1516477967 3.1516477967 3.137053606 3.137053606 3.1224594153 3.1224594153 3.1078652246 
3.0932710339 3.0786768432 3.0786768432 3.0786768432 3.0786768432 3.0932710339 3.1078652246 3.1224594153 3.137053606 
3.1516477967 3.1516477967 3.1516477967 3.137053606 3.1224594153 3.1078652246 3.0932710339 3.0786768432 3.0786768432 
3.0786768432 3.0786768432 3.0786768432 3.0932710339 3.1078652246 3.1224594153 3.137053606 3.1516477967 3.1516477967 
3.137053606 3.1224594153 3.1078652246 3.0932710339 3.0786768432 3.0786768432 3.0786768432 3.0786768432 3.0640826525 
3.0640826525 3.0640826525 3.0640826525 3.0640826525 3.0640826525 3.0786768432 3.0932710339 3.1078652246 3.1224594153 
3.137053606 3.137053606 3.1516477967 3.1662419875 3.1662419875 3.1662419875 3.1662419875 3.1516477967 3.1516477967 
3.137053606 3.1224594153 3.1078652246 3.0932710339 3.0786768432 3.0786768432 3.0786768432 3.0786768432 3.0640826525 
3.0640826525 3.0640826525 3.0640826525 3.0640826525 3.0786768432 3.0932710339 3.1078652246 3.1224594153 3.1224594153 
3.137053606 3.1516477967 3.1516477967 3.1662419875 3.1662419875 3.1662419875 3.1662419875 3.1516477967 3.137053606 
3.1224594153 3.1078652246 3.0932710339 3.0786768432 3.0786768432 3.0786768432 3.0640826525 3.0640826525 3.0640826525 
3.0786768432 3.0932710339 3.1078652246 3.1224594153 3.137053606 3.1516477967 3.1662419875 3.1662419875 3.1662419875 
3.1516477967 3.137053606 3.1224594153 3.1078652246 3.0932710339 3.0786768432 3.0786768432 3.0786768432 3.0786768432 
3.0640826525 3.0640826525 3.0640826525 3.0786768432 3.0932710339 3.1078652246 3.1224594153 3.137053606 3.1516477967 
3.1516477967 3.1662419875 3.1662419875 3.1516477967 3.137053606 3.137053606 3.1224594153 3.1078652246 3.0932710339 
3.0786768432 3.0786768432 3.0786768432 3.0640826525 3.0640826525 3.0640826525 3.0786768432 3.0932710339 3.1078652246 
3.1224594153 3.137053606 3.137053606 3.1516477967 3.1662419875 3.1662419875 3.1662419875 3.1662419875 3.1516477967 
3.137053606 3.1224594153 3.1078652246 3.0932710339 3.0786768432 3.0786768432 3.0786768432 3.0786768432 3.0786768432 
3.0640826525 3.0640826525 3.0786768432 3.0932710339 3.1078652246 3.1224594153 3.137053606 3.1516477967 3.1662419875 
3.1662419875 3.1662419875 3.1516477967 3.137053606 3.1224594153 3.1078652246 3.0932710339 3.0786768432 3.0786768432 
3.0786768432 3.0640826525 3.0640826525 3.0786768432 3.0932710339 3.1078652246 3.1078652246 3.1224594153 3.137053606 
3.1516477967 3.1516477967 3.1662419875 3.1662419875 3.1516477967 3.137053606 3.1224594153 3.1078652246 3.0932710339 
3.0786768432 3.0786768432 3.0786768432 3.0786768432 3.0786768432 3.0786768432 3.0640826525 3.0640826525 3.0494884618 
3.0494884618 3.0494884618 3.0494884618 3.0494884618 3.0640826525 3.0786768432 3.0786768432 3.0932710339 3.1078652246 
3.1224594153 3.1224594153 3.137053606 3.1516477967 3.1662419875 3.1662419875 3.1516477967 3.137053606 3.137053606 
3.1224594153 3.1078652246 3.0932710339 3.0786768432 3.0786768432 3.0786768432 3.0786768432 3.0786768432 3.0786768432 
3.0786768432 3.0640826525 3.0494884618 3.0494884618 3.0494884618 3.0640826525 3.0640826525 3.0786768432 3.0932710339 
3.1078652246 3.1224594153 3.137053606 3.137053606 3.1516477967 3.1662419875 3.1662419875 3.1662419875 3.1516477967 
3.137053606 3.1224594153 3.1078652246 3.0932710339 3.0786768432 3.0640826525 3.0640826525 3.0640826525 3.0640826525 
3.0786768432 3.0786768432 3.0640826525 3.0494884618 3.0494884618 3.0494884618 3.0494884618 3.0640826525 3.0786768432 
3.0932710339 3.1078652246 3.1224594153 3.137053606 3.1516477967 3.1516477967 3.1662419875 3.1662419875 3.1516477967 
3.137053606 3.1224594153 3.1078652246 3.0932710339 3.0786768432 3.0640826525 3.0640826525 3.0640826525 3.0640826525 
3.0786768432 3.0786768432 3.0786768432 3.0640826525 3.0494884618 3.0494884618 3.0640826525 3.0786768432 3.0932710339 
3.1078652246 3.1224594153 3.137053606 3.1516477967 3.1662419875 3.1662419875 3.1662419875 3.1516477967 3.137053606 
3.1224594153 3.1078652246 3.0932710339 3.0932710339 3.0786768432 3.0786768432 3.0640826525 3.0640826525 3.0640826525 
3.0786768432 3.0786768432 3.0640826525 3.0494884618 3.0348942711 3.0348942711 3.0348942711 3.0348942711 3.0348942711 
3.0494884618 3.0640826525 3.0786768432 3.0932710339 3.1078652246 3.1224594153 3.137053606 3.1516477967 2.9619233175 
2.9619233175 2.9765175082 2.9765175082 2.991111699 2.991111699 3.0057058897 3.0057058897 3.0203000804 3.0203000804 
3.0348942711 3.0348942711 3.0494884618 3.0494884618 3.0640826525 3.0640826525 3.0786768432 3.0786768432 3.0932710339 
3.0932710339 3.1078652246 3.1078652246 3.1224594153 3.1224594153 3.137053606 3.137053606 3.1516477967 3.1516477967 
3.1662419875 2.9619233175 2.9765175082 2.991111699 3.0057058897 3.0203000804 3.0348942711 3.0494884618 3.0640826525 
3.0786768432 3.0932710339 3.1078652246 3.1224594153 3.137053606 3.1516477967 3.1662419875 2.9619233175 2.9765175082 
2.991111699 3.0057058897 3.0203000804 3.0348942711 3.0494884618 3.0640826525 3.0786768432 3.0932710339 3.1078652246 
3.1224594153 3.137053606 3.1516477967 3.1662419875 2.9619233175 2.9765175082 2.991111699 3.0057058897 3.0203000804 
3.0348942711 3.0494884618 3.0640826525 3.0786768432 3.0932710339 3.1078652246 3.1224594153 3.137053606 3.1516477967 
3.1662419875 2.9619233175 2.9765175082 2.991111699 3.0057058897 3.0203000804 3.0348942711 3.0494884618 3.0640826525 
3.0786768432 3.0932710339 3.1078652246 3.1224594153 3.137053606 3.1516477967 3.1662419875 2.9619233175 2.9765175082 
2.991111699 3.0057058897 3.0203000804 3.0348942711 3.0494884618 3.0640826525 3.0786768432 3.0932710339 3.1078652246 
3.1224594153 3.137053606 3.1516477967 3.1662419875 2.9619233175 2.9765175082 2.991111699 3.0057058897 3.0203000804 
3.0348942711 3.0494884618 3.0640826525 3.0786768432 3.0932710339 3.1078652246 3.1224594153 3.137053606 3.1516477967 
3.1662419875 2.9619233175 2.9765175082 2.991111699 3.0057058897 3.0203000804 3.0348942711 3.0494884618 3.0640826525 
3.0786768432 3.0932710339 3.1078652246 3.1224594153 3.137053606 3.1516477967 3.1662419875 2.9619233175 2.9765175082 
2.991111699 3.0057058897 3.0203000804 3.0348942711 3.0494884618 3.0640826525 3.0786768432 3.0932710339 3.1078652246 
3.1224594153 3.137053606 3.1516477967 3.1662419875 2.9619233175 2.9765175082 2.991111699 3.0057058897 3.0203000804 
3.0348942711 3.0494884618 3.0640826525 3.0786768432 3.0932710339 3.1078652246 3.1224594153 3.137053606 3.1516477967 
3.1662419875 2.9619233175 2.9765175082 2.991111699 3.0057058897 3.0203000804 3.0348942711 3.0494884618 3.0640826525 
3.0786768432 3.0932710339 3.1078652246 3.1224594153 3.137053606 3.1516477967 2.9619233175 2.9765175082 2.991111699 
3.0057058897 3.0203000804 3.0348942711 3.0494884618 3.0640826525 3.0786768432 3.0932710339 3.1078652246 3.1224594153 
3.137053606 3.1516477967 2.9619233175 2.9765175082 2.991111699 3.0057058897 3.0203000804 3.0348942711 3.0494884618 
3.0640826525 3.0786768432 3.0932710339 3.1078652246 3.1224594153 3.137053606 2.9619233175 2.9765175082 2.991111699 
3.0057058897 3.0203000804 3.0348942711 3.0494884618 3.0640826525 3.0786768432 3.0932710339 3.1078652246 3.1224594153 
3.137053606 2.9619233175 2.9765175082 2.991111699 3.0057058897 3.0203000804 3.0348942711 3.0494884618 3.0640826525 
3.0786768432 3.0932710339 3.1078652246 3.1224594153 3.137053606 3.137053606 3.1224594153 3.1078652246 3.1078652246 
3.0932710339 3.0786768432 3.0640826525 3.0640826525 3.0640826525 3.0786768432 3.0786768432 3.0786768432 3.0640826525 
3.0494884618 3.0348942711 3.0348942711 3.0494884618 3.0494884618 3.0640826525 3.0786768432 3.0932710339 3.1078652246 