# vtk DataFile Version 4.2
vtk output
ASCII
DATASET POLYDATA
POINTS 9577 float
782.912 -1495.17 5800 782.722 -1495.09 5800 783.17 -1495.09 5800 
765.997 -1482.09 5800 811.914 -1486.22 5800 825.322 -1482.09 5800 
755.313 -1469.09 5800 840.915 -1477.28 5800 867.756 -1469.08 5800 
753.913 -1467.38 5800 744.629 -1456.09 5800 869.917 -1468.43 5800 
898.919 -1459.79 5800 911.35 -1456.08 5800 733.945 -1443.09 5800 
927.92 -1451.14 5800 954.979 -1443.08 5800 724.915 -1432.1 5800 
723.26 -1430.09 5800 956.922 -1442.5 5800 985.924 -1433.86 5800 
998.608 -1430.08 5800 712.68 -1417.08 5800 1014.93 -1425.21 5800 
1042.24 -1417.07 5800 702.319 -1404.08 5800 1043.93 -1416.57 5800 
1072.93 -1407.93 5800 1085.87 -1404.07 5800 695.917 -1396.05 5800 
691.959 -1391.08 5800 1101.93 -1399.28 5800 1129.49 -1391.07 5800 
681.598 -1378.08 5800 1130.93 -1390.64 5800 1159.93 -1382 5800 
1173.12 -1378.07 5800 671.238 -1365.08 5800 1188.94 -1373.35 5800 
1210.78 -1365.06 5800 666.918 -1359.66 5800 660.877 -1352.08 5800 
1217.94 -1362.08 5800 1241.22 -1352.06 5800 650.516 -1339.08 5800 
1246.94 -1349.6 5800 1271.43 -1339.06 5800 640.156 -1326.08 5800 
1275.94 -1337.12 5800 1301.64 -1326.06 5800 637.92 -1323.27 5800 
629.795 -1313.08 5800 1304.94 -1324.64 5800 1331.85 -1313.06 5800 
619.434 -1300.08 5800 1333.95 -1312.15 5800 1362.06 -1300.05 5800 
609.074 -1287.08 5800 1362.95 -1299.67 5800 1391.95 -1287.19 5800 
1392.27 -1287.05 5800 608.922 -1286.89 5800 598.713 -1274.08 5800 
1420.95 -1274.72 5800 1422.5 -1274.05 5800 588.353 -1261.08 5800 
1449.95 -1262.24 5800 1452.74 -1261.05 5800 579.924 -1250.5 5800 
577.992 -1248.08 5800 1478.95 -1249.77 5800 1482.97 -1248.04 5800 
3741.03 -1252.07 5800 3738.2 -1247.97 5800 3770.03 -1257.8 5800 
3799.03 -1252.09 5800 3828.04 -1249.35 5800 3842.72 -1247.96 5800 
567.631 -1235.08 5800 1507.96 -1237.3 5800 1513.21 -1235.04 5800 
3729.21 -1234.97 5800 3857.04 -1246.61 5800 3886.04 -1243.87 5800 
3915.04 -1241.13 5800 3944.04 -1238.39 5800 3973.04 -1235.65 5800 
3980.37 -1234.96 5800 557.271 -1222.07 5800 1536.96 -1224.83 5800 
1541.13 -1222.04 5800 3720.22 -1221.97 5800 4002.04 -1232.91 5800 
4031.04 -1229.98 5800 4060.05 -1227 5800 4089.05 -1224.02 5800 
4109.19 -1221.95 5800 550.926 -1214.11 5800 546.91 -1209.07 5800 
1565.96 -1210.74 5800 1567.91 -1209.04 5800 3712.03 -1210.13 5800 
3711.23 -1208.96 5800 4118.05 -1221.04 5800 4147.05 -1218.01 5800 
4176.05 -1214.55 5800 4179.5 -1208.95 5800 536.55 -1196.07 5800 
1580.77 -1196.04 5800 3702.24 -1195.96 5800 4184.35 -1195.95 5800 
526.189 -1183.07 5800 1594.96 -1185.39 5800 1597.66 -1183.04 5800 
2548.7 -1183 5800 2552 -1187.12 5800 2568.79 -1183 5800 
3693.25 -1182.96 5800 4184.61 -1182.95 5800 521.927 -1177.73 5800 
515.828 -1170.07 5800 1612.54 -1170.03 5800 2538.57 -1170 5800 
2581 -1180.18 5800 2601.76 -1170 5800 3684.26 -1169.96 5800 
4184.8 -1169.95 5800 505.468 -1157.07 5800 1623.97 -1160.04 5800 
1627.41 -1157.03 5800 2529.04 -1157 5800 2610 -1165.86 5800 
2627.66 -1157 5800 3683.04 -1168.19 5800 3675.27 -1156.96 5800 
4184.98 -1156.94 5800 495.107 -1144.07 5800 1642.29 -1144.03 5800 
2519.54 -1144 5800 2523 -1148.74 5800 2639 -1151.3 5800 
2653.56 -1144 5800 3666.28 -1143.96 5800 4185.17 -1143.94 5800 
492.929 -1141.34 5800 484.746 -1131.07 5800 1652.97 -1134.7 5800 
1654.88 -1131.03 5800 2510.05 -1131 5800 2668 -1136.75 5800 
2679.81 -1130.99 5800 3657.29 -1130.96 5800 4185.35 -1130.94 5800 
474.386 -1118.07 5800 1660.71 -1118.03 5800 2500.55 -1118 5800 
2697.01 -1122.57 5800 2707.76 -1117.99 5800 3654.04 -1126.25 5800 
3648.31 -1117.96 5800 4185.54 -1117.94 5800 463.931 -1106.34 5800 
462.813 -1105.07 5800 1663.61 -1105.03 5800 2491.06 -1105 5800 
2494 -1109.03 5800 2726.01 -1110.22 5800 2738.27 -1104.99 5800 
3639.32 -1104.96 5800 4185.72 -1104.94 5800 450.775 -1092.07 5800 
1666.52 -1092.03 5800 2481.56 -1092 5800 2755.01 -1097.86 5800 
2768.79 -1091.99 5800 3630.33 -1091.96 5800 4185.91 -1091.94 5800 
438.737 -1079.07 5800 1669.42 -1079.03 5800 2472.07 -1079 5800 
2784.01 -1086.96 5800 2794.68 -1078.99 5800 3625.04 -1084.15 5800 
3621.57 -1078.96 5800 4186.09 -1078.94 5800 434.932 -1074.96 5800 
426.699 -1066.07 5800 1677.91 -1066.02 5800 2462.57 -1066 5800 
2465 -1069.32 5800 2809.17 -1065.99 5800 3612.89 -1065.96 5800 
4186.28 -1065.94 5800 414.661 -1053.07 5800 1681.98 -1060.32 5800 
1687.18 -1053.02 5800 2453.08 -1053 5800 2813.02 -1062.01 5800 
2824.29 -1052.98 5800 3604.21 -1052.96 5800 4186.46 -1052.94 5800 
405.934 -1043.64 5800 402.623 -1040.07 5800 1696.44 -1040.02 5800 
2431.78 -1040 5800 2436 -1041.68 5800 2840.52 -1039.98 5800 
3596.04 -1040.73 5800 3595.53 -1039.96 5800 4186.65 -1039.94 5800 
390.585 -1027.07 5800 1705.7 -1027.02 5800 2397.86 -1027 5800 
2407 -1030.37 5800 2842.02 -1038.78 5800 2857.45 -1026.98 5800 
3586.84 -1026.96 5800 4186.83 -1026.93 5800 378.547 -1014.06 5800 
1710.98 -1019.61 5800 1714.97 -1014.02 5800 2368.78 -1014 5800 
2378 -1019.44 5800 2871.02 -1017.02 5800 2875.46 -1013.98 5800 
3578.16 -1013.95 5800 4187.01 -1013.93 5800 376.935 -1012.32 5800 
369.437 -1001.06 5800 1724.23 -1001.02 5800 2354.12 -1001 5800 
2894.43 -1000.98 5800 3569.48 -1000.95 5800 4187.2 -1000.93 5800 
365.351 -988.063 5800 1733.69 -988.016 5800 2346.38 -987.995 5800 
2349 -994.541 5800 2900.02 -997.14 5800 2913.4 -987.976 5800 
3567.05 -997.309 5800 3560.8 -987.953 5800 4187.38 -987.932 5800 
364.066 -975.062 5800 1739.98 -978.905 5800 1742.76 -975.015 5800 
2340.48 -974.994 5800 2929.03 -977.262 5800 2932.36 -974.974 5800 
3552.12 -974.953 5800 4187.57 -974.931 5800 362.782 -962.061 5800 
1752.02 -962.014 5800 2334.58 -961.993 5800 2951.33 -961.972 5800 
3544.28 -961.952 5800 4187.75 -961.93 5800 361.497 -949.061 5800 
1761.8 -949.012 5800 2328.69 -948.993 5800 2958.03 -957.384 5800 
2968.96 -948.971 5800 3539.82 -948.951 5800 4187.94 -948.929 5800 
360.213 -936.06 5800 1768.99 -938.197 5800 1770.55 -936.011 5800 
2322.79 -935.992 5800 2986.33 -935.969 5800 3538.05 -942.669 5800 
3536.24 -935.95 5800 4188.12 -935.928 5800 358.928 -923.059 5800 
1780.11 -923.01 5800 2317.1 -922.991 5800 2320.01 -929.866 5800 
2987.03 -935.414 5800 2999.24 -922.968 5800 3532.75 -922.949 5800 
4188.31 -922.927 5800 357.643 -910.058 5800 1790.1 -910.008 5800 
2311.71 -909.99 5800 3011.18 -909.966 5800 3529.26 -909.948 5800 
4188.49 -909.926 5800 356.359 -897.057 5800 1797.99 -897.802 5800 
1798.56 -897.007 5800 2306.56 -896.989 5800 3016.03 -904.677 5800 
3023.12 -896.965 5800 3525.77 -896.947 5800 4188.68 -896.925 5800 
355.074 -884.056 5800 1808.84 -884.006 5800 2301.55 -883.989 5800 
3035.05 -883.963 5800 3522.28 -883.947 5800 4188.86 -883.924 5800 
353.79 -871.055 5800 1818.51 -871.004 5800 2296.55 -870.988 5800 
3045.04 -873.091 5800 3046.18 -870.962 5800 3518.78 -870.946 5800 
4188.48 -870.923 5800 352.529 -858.054 5800 1826.67 -858.003 5800 
2291.54 -857.987 5800 3052.97 -857.961 5800 3515.45 -857.945 5800 
4187.75 -857.922 5800 351.376 -845.053 5800 1827 -857.552 5800 
1835.65 -845.002 5800 2286.53 -844.986 5800 2291.01 -856.624 5800 
3059.44 -844.96 5800 3512.59 -844.944 5800 4187.09 -844.921 5800 
350.386 -832.052 5800 1842.46 -832 5800 2281.52 -831.985 5800 
3065.6 -831.958 5800 3509.88 -831.943 5800 4186.59 -831.92 5800 
349.396 -819.051 5800 1854.01 -818.999 5800 2272.1 -818.985 5800 
3071.48 -818.957 5800 3509.06 -827.98 5800 3507.19 -818.942 5800 
4186.2 -818.919 5800 348.406 -806.05 5800 1856 -816.718 5800 
1863.14 -805.998 5800 2260.96 -805.984 5800 2262.02 -807.81 5800 
3074.04 -813.092 5800 3076.46 -805.956 5800 3504.5 -805.941 5800 
4185.82 -805.918 5800 347.95 -800.062 5800 347.417 -793.049 5800 
1871.8 -792.996 5800 2254.6 -792.983 5800 3082.45 -792.955 5800 
3501.81 -792.94 5800 4185.44 -792.917 5800 346.427 -780.048 5800 
1880.46 -779.995 5800 2250.13 -779.982 5800 3088.41 -779.953 5800 
3499.12 -779.939 5800 4185.06 -779.916 5800 345.437 -767.047 5800 
1885.01 -773.248 5800 1889.31 -766.994 5800 2247.76 -766.982 5800 
3094.37 -766.952 5800 3495.8 -766.938 5800 4184.68 -766.915 5800 
344.447 -754.046 5800 1898.71 -753.992 5800 2245.39 -753.981 5800 
3100.33 -753.951 5800 3491.13 -753.938 5800 4184.3 -753.914 5800 
343.457 -741.045 5800 1908.1 -740.991 5800 2243.02 -740.98 5800 
3103.05 -748.031 5800 3106.17 -740.95 5800 3484.37 -740.937 5800 
4183.92 -740.913 5800 342.468 -728.044 5800 1914.01 -732.822 5800 
1917.24 -727.99 5800 2240.65 -727.979 5800 3111.96 -727.949 5800 
3480.06 -732.649 5800 3477.61 -727.936 5800 4183.54 -727.912 5800 
341.478 -715.043 5800 1925.9 -714.989 5800 2238.28 -714.978 5800 
3117.81 -714.948 5800 3470.99 -714.935 5800 4183.16 -714.911 5800 
340.488 -702.042 5800 1934.48 -701.987 5800 2235.82 -701.977 5800 
3123.72 -701.946 5800 3466.39 -701.935 5800 4182.77 -701.91 5800 
339.498 -689.041 5800 1943.01 -688.989 5800 1943.02 -688.986 5800 
2233.32 -688.976 5800 3129.71 -688.945 5800 3463.17 -688.934 5800 
4182.39 -688.909 5800 338.508 -676.04 5800 1951.55 -675.985 5800 
2230.82 -675.975 5800 2233.02 -687.423 5800 3132.06 -679.91 5800 
3132.74 -675.944 5800 3461.35 -675.933 5800 4182.01 -675.908 5800 
6525.17 -679.243 5800 6516.54 -675.827 5800 6554.17 -683.333 5800 
6569.91 -675.825 5800 337.519 -663.039 5800 1961.31 -662.983 5800 
2228.32 -662.974 5800 3134.53 -662.943 5800 3459.53 -662.932 5800 
4181.63 -662.907 5800 6496.17 -667.762 5800 6483.71 -662.827 5800 
6583.18 -669.428 5800 6596.87 -662.823 5800 336.529 -650.038 5800 
1972.02 -651.61 5800 1973.63 -649.982 5800 2225.82 -649.973 5800 
3136.33 -649.942 5800 3457.71 -649.931 5800 4181.25 -649.906 5800 
6467.17 -656.282 5800 6450.87 -649.828 5800 6612.18 -655.388 5800 
6623.64 -649.822 5800 335.539 -637.037 5800 1986.47 -636.981 5800 
2223.32 -636.972 5800 2476.63 -636.964 5800 2494.04 -644.054 5800 
2523.04 -645.425 5800 2552.04 -644.619 5800 2581.04 -639.985 5800 
2584.48 -636.96 5800 3138.12 -636.941 5800 3455.89 -636.93 5800 
4180.87 -636.905 5800 6438.17 -644.801 5800 6418.03 -636.828 5800 
[...]
POINT_DATA 9577
SCALARS Pressure double
LOOKUP_TABLE default
3.0873455297 3.0873455297 3.0873455297 3.0873455297 3.0873455297 3.0873455297 3.0873455297 3.0873455297 3.0873455297 
3.0873455297 3.0873455297 3.0873455297 3.0873455297 3.0873455297 3.0873455297 3.0873455297 3.0873455297 3.0873455297 
3.0873455297 3.0873455297 3.0873455297 3.0873455297 3.0873455297 3.0873455297 3.0873455297 3.0873455297 3.0873455297 
3.0873455297 3.0873455297 3.0873455297 3.0873455297 3.0873455297 3.0873455297 3.0873455297 3.0873455297 3.0873455297 
3.0873455297 3.0873455297 3.0873455297 3.0873455297 3.0873455297 3.0873455297 3.0873455297 3.0873455297 3.0873455297 
3.0873455297 3.0873455297 3.0873455297 3.0873455297 3.0873455297 3.0873455297 3.0873455297 3.0873455297 3.0873455297 
3.0873455297 3.0873455297 3.0873455297 3.0873455297 3.0873455297 3.0873455297 3.0873455297 3.0873455297 3.0873455297 
3.0873455297 3.0873455297 3.0873455297 3.0873455297 3.0873455297 3.0873455297 3.0873455297 3.0873455297 3.0873455297 
3.0873455297 3.0873455297 3.0873455297 3.0873455297 3.0873455297 3.0873455297 3.0873455297 3.0873455297 3.0873455297 
3.0873455297 3.0873455297 3.0873455297 3.0873455297 3.0873455297 3.0873455297 3.0873455297 3.0873455297 3.0873455297 
3.0873455297 3.0873455297 3.0873455297 3.0873455297 3.0873455297 3.0873455297 3.0873455297 3.0873455297 3.0873455297 
3.0873455297 3.0873455297 3.0873455297 3.0873455297 3.0873455297 3.0873455297 3.0873455297 3.0873455297 3.0873455297 
3.0873455297 3.0873455297 3.0873455297 3.0873455297 3.0873455297 3.0873455297 3.1001679069 3.1001679069 3.1001679069 
3.0873455297 3.0873455297 3.0873455297 3.0873455297 3.0873455297 3.1001679069 3.1001679069 3.1001679069 3.0873455297 
3.0873455297 3.0873455297 3.0873455297 3.0873455297 3.1001679069 3.1001679069 3.1001679069 3.0873455297 3.0873455297 
3.0873455297 3.0873455297 3.0873455297 3.1001679069 3.1001679069 3.1001679069 3.1001679069 3.0873455297 3.0873455297 
3.0873455297 3.0873455297 3.0873455297 3.0873455297 3.1001679069 3.1001679069 3.1001679069 3.0873455297 3.0873455297 
3.0873455297 3.0873455297 3.1001679069 3.1001679069 3.1001679069 3.0873455297 3.0873455297 3.0873455297 3.0873455297 
3.0873455297 3.0873455297 3.1001679069 3.1001679069 3.1001679069 3.1001679069 3.0873455297 3.0873455297 3.0873455297 
3.0873455297 3.1001679069 3.1001679069 3.1001679069 3.0873455297 3.0873455297 3.0873455297 3.0873455297 3.1001679069 
3.1001679069 3.1001679069 3.0873455297 3.0873455297 3.0873455297 3.0873455297 3.0873455297 3.0873455297 3.1001679069 
3.1001679069 3.1001679069 3.0873455297 3.0873455297 3.0873455297 3.0873455297 3.0873455297 3.1001679069 3.1001679069 
3.1001679069 3.0873455297 3.0873455297 3.0873455297 3.0873455297 3.0873455297 3.1001679069 3.1001679069 3.1001679069 
3.0873455297 3.0873455297 3.0873455297 3.0873455297 3.0873455297 3.1001679069 3.1001679069 3.1001679069 3.1001679069 
3.0873455297 3.0873455297 3.0873455297 3.0873455297 3.0873455297 3.1001679069 3.1001679069 3.1001679069 3.1001679069 
3.0873455297 3.0873455297 3.0873455297 3.0873455297 3.0873455297 3.1001679069 3.1001679069 3.0873455297 3.0873455297 
3.0873455297 3.0873455297 3.1001679069 3.1001679069 3.1001679069 3.1001679069 3.0873455297 3.0873455297 3.0873455297 
3.0873455297 3.0873455297 3.0873455297 3.1001679069 3.1001679069 3.1001679069 3.0873455297 3.0873455297 3.0873455297 
3.0873455297 3.1001679069 3.1001679069 3.0873455297 3.0873455297 3.0873455297 3.0873455297 3.1001679069 3.1001679069 
3.1001679069 3.0873455297 3.0873455297 3.0873455297 3.0873455297 3.0873455297 3.1001679069 3.1001679069 3.0873455297 
3.0873455297 3.0873455297 3.0873455297 3.0873455297 3.1001679069 3.1001679069 3.1001679069 3.1001679069 3.0873455297 
3.0873455297 3.0873455297 3.0873455297 3.1001679069 3.1001679069 3.0873455297 3.0873455297 3.0873455297 3.0873455297 
3.0873455297 3.1001679069 3.1001679069 3.1001679069 3.0873455297 3.0873455297 3.0873455297 3.0873455297 3.1001679069 
3.1001679069 3.0873455297 3.0873455297 3.0873455297 3.0873455297 3.1001679069 3.1001679069 3.1001679069 3.0873455297 
3.0873455297 3.0873455297 3.0873455297 3.1001679069 3.1001679069 3.0873455297 3.0873455297 3.0873455297 3.0873455297 
3.0873455297 3.1001679069 3.1001679069 3.1001679069 3.0873455297 3.0873455297 3.0873455297 3.0873455297 3.1001679069 
3.1001679069 3.0873455297 3.0873455297 3.0873455297 3.0873455297 3.1001679069 3.1001679069 3.0873455297 3.0873455297 
3.0873455297 3.0873455297 3.0873455297 3.0873455297 3.1001679069 3.1001679069 3.1001679069 3.1001679069 3.0873455297 
3.0873455297 3.0873455297 3.0873455297 3.0873455297 3.1001679069 3.1001679069 3.0873455297 3.0873455297 3.0873455297 
3.0873455297 3.1001679069 3.1001679069 3.0873455297 3.0873455297 3.0873455297 3.0873455297 3.0873455297 3.1001679069 
3.1001679069 3.0873455297 3.0873455297 3.0873455297 3.0873455297 3.1001679069 3.1001679069 3.0873455297 3.0873455297 
3.0873455297 3.0873455297 3.1001679069 3.1001679069 3.1001679069 3.0873455297 3.0873455297 3.0873455297 3.0873455297 
3.0873455297 3.1001679069 3.1001679069 3.0873455297 3.0873455297 3.0873455297 3.0873455297 3.0873455297 3.1001679069 
3.1001679069 3.0873455297 3.0873455297 3.0873455297 3.0873455297 3.1001679069 3.1001679069 3.0873455297 3.0873455297 
3.0873455297 3.0873455297 3.0873455297 3.1001679069 3.1001679069 3.0873455297 3.0873455297 3.0873455297 3.0873455297 
3.1001679069 3.1001679069 3.1001679069 3.1001679069 3.0873455297 3.0873455297 3.0873455297 3.0873455297 3.0873455297 
3.0873455297 3.0873455297 3.0873455297 3.1001679069 3.1001679069 3.0873455297 3.0873455297 3.0873455297 3.0873455297 
3.0873455297 3.0873455297 3.0873455297 3.0873455297 3.0873455297 3.1001679069 3.1001679069 3.0873455297 3.0873455297 
3.0873455297 3.0873455297 3.0873455297 3.0873455297 3.0873455297 3.0873455297 3.1001679069 3.112990284 3.112990284 
3.112990284 3.112990284 3.112990284 3.112990284 3.1001679069 3.0873455297 3.0873455297 3.0873455297 3.0873455297 
3.0873455297 3.0873455297 3.0873455297 3.0873455297 3.1001679069 3.112990284 3.112990284 3.112990284 3.1001679069 
3.0873455297 3.0873455297 3.0873455297 3.0873455297 3.0873455297 3.0873455297 3.0873455297 3.0873455297 3.0873455297 
3.1001679069 3.112990284 3.112990284 3.112990284 3.112990284 3.1001679069 3.0873455297 3.0873455297 3.0873455297 
3.0873455297 3.0873455297 3.0873455297 3.0873455297 3.0873455297 3.1001679069 3.112990284 3.112990284 3.1001679069 
3.0873455297 3.0873455297 3.0873455297 3.0873455297 3.0873455297 3.0873455297 3.0873455297 3.0873455297 3.0873455297 
3.0873455297 3.1001679069 3.112990284 3.112990284 3.112990284 3.112990284 3.1001679069 3.0873455297 3.0873455297 
3.0873455297 3.0873455297 3.0873455297 3.0873455297 3.0873455297 3.0873455297 3.1001679069 3.112990284 3.112990284 
3.112990284 3.1001679069 3.0873455297 3.0873455297 3.0873455297 3.0873455297 3.0873455297 3.0873455297 3.0873455297 
3.1001679069 3.1001679069 3.112990284 3.112990284 3.112990284 3.1001679069 3.0873455297 3.0873455297 3.0873455297 
3.0873455297 3.0873455297 3.0873455297 3.0873455297 3.0873455297 3.0873455297 3.0873455297 3.0873455297 3.1001679069 
3.112990284 3.112990284 3.1001679069 3.0873455297 3.0873455297 3.0873455297 3.0873455297 3.0873455297 3.0873455297 
3.0873455297 3.0873455297 3.0873455297 3.0873455297 3.0873455297 3.0873455297 3.1001679069 3.112990284 3.112990284 
3.112990284 3.1001679069 3.1001679069 3.0873455297 3.0873455297 3.0873455297 3.0873455297 3.0873455297 3.0873455297 
3.0873455297 3.0873455297 3.0873455297 3.0873455297 3.0873455297 3.0873455297 3.0873455297 3.0873455297 3.1001679069 
3.112990284 3.112990284 3.112990284 3.1001679069 3.0873455297 3.0873455297 3.0873455297 3.0873455297 3.0873455297 
3.0873455297 3.0873455297 3.0873455297 3.0873455297 3.0873455297 3.0873455297 3.0873455297 3.0873455297 3.1001679069 
3.112990284 3.112990284 3.112990284 3.1001679069 3.0873455297 3.0873455297 3.0873455297 3.0873455297 3.0873455297 
3.0873455297 3.0873455297 3.0873455297 3.0873455297 3.0873455297 3.0873455297 3.0873455297 3.0873455297 3.1001679069 
3.112990284 3.112990284 3.112990284 3.1001679069 3.0873455297 3.0873455297 3.0873455297 3.0873455297 3.0873455297 
3.0873455297 3.0873455297 3.0873455297 3.0873455297 3.0873455297 3.0873455297 3.0873455297 3.0873455297 3.1001679069 
3.112990284 3.112990284 3.112990284 3.112990284 3.112990284 3.112990284 3.112990284 3.112990284 3.1001679069 
3.0873455297 3.0873455297 3.0873455297 3.0873455297 3.0873455297 3.0873455297 3.0873455297 3.0873455297 3.0873455297 
3.0873455297 3.0873455297 3.0873455297 3.1001679069 3.112990284 3.112990284 3.1001679069 3.0873455297 3.0873455297 
3.0873455297 3.0873455297 3.0873455297 3.0873455297 3.0873455297 3.0873455297 3.0873455297 3.0873455297 3.0873455297 
3.0873455297 3.0873455297 3.0873455297 3.0873455297 3.1001679069 3.112990284 3.112990284 3.112990284 3.1001679069 
3.0873455297 3.0873455297 3.0873455297 3.0873455297 3.0873455297 3.0873455297 3.0873455297 3.0873455297 3.0873455297 
3.0873455297 3.0873455297 3.0873455297 3.0873455297 3.0873455297 3.1001679069 3.112990284 3.1258126612 3.1258126612 
3.1258126612 3.112990284 3.1001679069 3.1001679069 3.0873455297 3.0873455297 3.0873455297 3.0873455297 3.0873455297 
3.0873455297 3.0873455297 3.0873455297 3.0873455297 3.0873455297 3.1001679069 3.112990284 3.1258126612 3.1258126612 
3.1258126612 3.1258126612 3.1258126612 3.112990284 3.112990284 3.1001679069 3.0873455297 3.0873455297 3.0873455297 
3.0873455297 3.0873455297 3.0873455297 3.0873455297 3.0873455297 3.0873455297 3.0873455297 3.0873455297 3.0873455297 
3.0873455297 3.0873455297 3.1001679069 3.112990284 3.1258126612 3.1258126612 3.1258126612 3.112990284 3.1001679069 
3.0873455297 3.0873455297 3.0873455297 3.0873455297 3.0873455297 3.0873455297 3.0873455297 3.0873455297 3.0873455297 
3.0873455297 3.0873455297 3.0873455297 3.0873455297 3.1001679069 3.112990284 3.112990284 3.1258126612 3.1258126612 
3.1258126612 3.112990284 3.1001679069 3.0873455297 3.0873455297 3.0873455297 3.0873455297 3.0873455297 3.0873455297 
3.0873455297 3.0873455297 3.0873455297 3.0873455297 3.0873455297 3.1001679069 3.112990284 3.1258126612 3.1258126612 
3.1258126612 3.112990284 3.112990284 3.1001679069 3.0873455297 3.0873455297 3.0873455297 3.0873455297 3.0873455297 
3.0873455297 3.0873455297 3.0873455297 3.1001679069 3.112990284 3.1258126612 3.1258126612 3.112990284 3.1001679069 
3.0873455297 3.0873455297 3.0873455297 3.0873455297 3.0873455297 3.0873455297 3.0873455297 3.0873455297 3.0873455297 
3.1001679069 3.112990284 3.1258126612 3.1258126612 3.1258126612 3.112990284 3.112990284 3.1001679069 3.0873455297 
3.0873455297 3.0873455297 3.0873455297 3.0873455297 3.0873455297 3.0873455297 3.0873455297 3.0745231525 3.0745231525 
3.0745231525 3.0745231525 3.0745231525 3.0745231525 3.0745231525 3.0745231525 3.0873455297 3.1001679069 3.112990284 
3.1258126612 3.1258126612 3.1258126612 3.112990284 3.1001679069 3.0873455297 3.0873455297 3.0873455297 3.0873455297 
3.0873455297 3.0873455297 3.0873455297 3.0873455297 3.0745231525 3.0745231525 3.0745231525 3.0745231525 3.0873455297 
3.1001679069 3.112990284 3.112990284 3.1258126612 3.1258126612 3.112990284 3.112990284 3.1001679069 3.0873455297 
3.0873455297 3.0873455297 3.0873455297 3.0873455297 3.0873455297 3.0745231525 3.0745231525 3.0745231525 3.0745231525 
3.0873455297 3.1001679069 3.112990284 3.1258126612 3.1258126612 3.1258126612 3.112990284 3.1001679069 3.0873455297 
3.0873455297 3.0873455297 3.0873455297 3.0873455297 3.0745231525 3.0745231525 3.0873455297 3.1001679069 3.112990284 
3.1258126612 3.1386350384 3.1386350384 3.1386350384 3.1258126612 3.112990284 3.1001679069 3.0873455297 3.0873455297 
3.0873455297 3.0873455297 3.0873455297 3.0873455297 3.0745231525 3.0745231525 3.0745231525 3.0745231525 3.0873455297 
3.1001679069 3.112990284 3.1258126612 3.1386350384 3.1386350384 3.1386350384 3.1258126612 3.112990284 3.1001679069 
3.1001679069 3.0873455297 3.0873455297 3.0873455297 3.0873455297 3.0873455297 3.0745231525 3.0745231525 3.0873455297 
3.1001679069 3.112990284 3.1258126612 3.1258126612 3.1386350384 3.1386350384 3.1386350384 3.1386350384 3.1258126612 
3.1258126612 3.112990284 3.1001679069 3.0873455297 3.0873455297 3.0873455297 3.0873455297 3.0873455297 3.0873455297 
3.0873455297 3.0873455297 3.0745231525 3.0745231525 3.0745231525 3.0745231525 3.0873455297 3.0873455297 3.1001679069 
3.112990284 3.1258126612 3.1386350384 3.1386350384 3.1386350384 3.1258126612 3.112990284 3.112990284 3.1001679069 
3.0873455297 3.0873455297 3.0873455297 3.0873455297 3.0873455297 3.0873455297 3.0873455297 3.0745231525 3.0745231525 
3.0745231525 3.0873455297 3.1001679069 3.112990284 3.1258126612 3.1386350384 3.1386350384 3.1386350384 3.1258126612 
3.112990284 3.1001679069 3.0873455297 3.0873455297 3.0873455297 3.0873455297 3.0873455297 3.0745231525 3.0745231525 
3.0745231525 3.0873455297 3.1001679069 3.112990284 3.1258126612 3.1386350384 3.1386350384 3.1258126612 3.112990284 
3.1001679069 3.0873455297 3.0873455297 3.0873455297 3.0873455297 3.0873455297 3.0873455297 3.0745231525 3.0745231525 
3.0745231525 3.0873455297 3.1001679069 3.112990284 3.112990284 3.1258126612 3.1258126612 3.1386350384 3.1386350384 
3.1386350384 3.1386350384 3.1258126612 3.112990284 3.1001679069 3.0873455297 3.0873455297 3.0873455297 3.0873455297 
3.0873455297 3.0873455297 3.0745231525 3.0745231525 3.0745231525 3.0873455297 3.1001679069 3.112990284 3.1258126612 
3.1386350384 3.1386350384 3.1258126612 3.1258126612 3.112990284 3.1001679069 3.0873455297 3.0873455297 3.0873455297 
3.0873455297 3.0873455297 3.0873455297 3.0873455297 3.0745231525 3.0745231525 3.0873455297 3.1001679069 3.112990284 
3.1258126612 3.1386350384 3.1386350384 3.1386350384 3.1258126612 3.1258126612 3.1258126612 3.1258126612 3.112990284 
3.1001679069 3.0873455297 3.0873455297 3.0873455297 3.0873455297 3.0873455297 3.0873455297 3.0745231525 3.0745231525 
3.0873455297 3.1001679069 3.1001679069 3.112990284 3.1258126612 3.1386350384 3.1514574156 3.1514574156 3.1514574156 
3.1514574156 3.1386350384 3.1258126612 3.1258126612 3.1258126612 3.1258126612 3.112990284 3.1001679069 3.0873455297 
3.0873455297 3.0873455297 3.0873455297 3.0745231525 3.0745231525 3.0873455297 3.1001679069 3.112990284 3.1258126612 
3.1386350384 3.1514574156 3.1514574156 3.1514574156 3.1386350384 3.1258126612 3.1258126612 3.1258126612 3.1258126612 
3.112990284 3.1001679069 3.0873455297 3.0745231525 3.0745231525 3.0745231525 3.0873455297 3.0873455297 3.0745231525 
3.0617007753 3.0617007753 3.0617007753 3.0617007753 3.0617007753 3.0745231525 3.0745231525 3.0873455297 3.1001679069 
3.112990284 3.1258126612 3.1258126612 3.1386350384 3.1386350384 3.1514574156 3.1514574156 3.1514574156 3.1514574156 
3.1386350384 3.1258126612 3.1258126612 3.1258126612 3.112990284 3.1001679069 3.0873455297 3.0745231525 3.0745231525 
3.0745231525 3.0745231525 3.0873455297 3.0745231525 3.0617007753 3.0617007753 3.0617007753 3.0617007753 3.0617007753 
3.0745231525 3.0873455297 3.1001679069 3.112990284 3.1258126612 3.1386350384 3.1514574156 3.1514574156 3.1386350384 
3.1386350384 3.1258126612 3.1258126612 3.1258126612 3.112990284 3.1001679069 3.0873455297 3.0745231525 3.0745231525 
3.0745231525 3.0873455297 3.0745231525 3.0617007753 3.0617007753 3.0617007753 3.0745231525 3.0873455297 3.1001679069 
3.112990284 3.1258126612 3.1386350384 3.1386350384 3.1514574156 3.1514574156 3.1514574156 3.1386350384 3.1258126612 
3.1258126612 3.1258126612 3.112990284 3.1001679069 3.0873455297 3.0745231525 3.0745231525 3.0745231525 3.0873455297 
3.0745231525 3.0617007753 3.0617007753 3.0617007753 3.0745231525 3.0873455297 3.1001679069 3.112990284 3.112990284 
3.1258126612 3.1386350384 3.1514574156 3.1514574156 3.1514574156 3.1514574156 3.1386350384 3.1258126612 3.1258126612 
3.1258126612 3.1258126612 3.112990284 3.1001679069 3.0873455297 3.0873455297 3.0745231525 3.0745231525 3.0873455297 
3.0745231525 3.0617007753 3.0617007753 3.0617007753 3.0745231525 3.0873455297 3.1001679069 3.112990284 3.1258126612 
3.1258126612 3.1386350384 3.1514574156 3.1514574156 3.1386350384 3.1258126612 3.1258126612 3.1258126612 3.1258126612 
3.112990284 3.1001679069 3.0873455297 3.0745231525 3.0745231525 3.0745231525 3.0745231525 3.0745231525 3.0745231525 
3.0873455297 3.0873455297 3.0745231525 3.0617007753 3.0617007753 3.0745231525 3.0873455297 3.1001679069 3.112990284 
3.1258126612 3.1386350384 3.1386350384 3.1514574156 3.1514574156 3.1514574156 3.1386350384 3.1258126612 3.1258126612 
3.1258126612 3.112990284 3.1001679069 3.1001679069 3.0873455297 3.0745231525 3.0745231525 3.0745231525 3.0745231525 
3.0745231525 3.0745231525 3.0745231525 3.0745231525 3.0873455297 3.0745231525 3.0617007753 3.0488783982 3.0488783982 
3.0488783982 3.0488783982 3.0488783982 3.0617007753 3.0745231525 3.0873455297 3.1001679069 3.112990284 3.1258126612 
3.1386350384 3.1514574156 3.1642797927 3.1642797927 3.1642797927 3.1642797927 3.1642797927 3.1514574156 3.1386350384 
3.1258126612 3.1258126612 3.1258126612 3.1258126612 3.112990284 3.1001679069 3.0873455297 3.0745231525 3.0745231525 
3.0745231525 3.0745231525 3.0745231525 3.0745231525 3.0745231525 3.0745231525 3.0745231525 3.0745231525 3.0745231525 
3.0745231525 3.0745231525 3.0745231525 3.0873455297 3.0745231525 3.0617007753 3.0617007753 3.0488783982 3.0488783982 
3.0488783982 3.0488783982 3.0617007753 3.0617007753 3.0745231525 3.0745231525 3.0873455297 3.1001679069 3.112990284 
3.1258126612 3.1386350384 3.1514574156 3.1514574156 3.1642797927 3.1642797927 3.1642797927 3.1642797927 3.1514574156 
3.1386350384 3.1258126612 3.1258126612 3.1258126612 3.1258126612 3.112990284 3.112990284 3.1001679069 3.0873455297 
3.0745231525 3.0745231525 3.0745231525 3.0745231525 3.0745231525 3.0745231525 3.0745231525 3.0745231525 3.0745231525 
3.0745231525 3.0745231525 3.0745231525 3.0745231525 3.0745231525 3.0745231525 3.0745231525 3.0873455297 3.0745231525 
3.0617007753 3.0488783982 3.0488783982 3.0617007753 3.0745231525 3.0873455297 3.1001679069 3.112990284 3.1258126612 
3.1258126612 3.1386350384 3.1514574156 3.1642797927 3.1642797927 3.1514574156 3.1386350384 3.1258126612 3.1258126612 
3.1258126612 3.112990284 3.1001679069 3.0873455297 3.0745231525 3.0745231525 3.0745231525 3.0745231525 3.0745231525 
3.0745231525 3.0745231525 3.0745231525 3.0745231525 3.0745231525 3.0745231525 3.0745231525 3.0745231525 3.0745231525 
3.0745231525 3.0745231525 3.0745231525 3.0873455297 3.0745231525 3.0617007753 3.0488783982 3.0488783982 3.036056021 
3.036056021 3.036056021 3.0488783982 3.0617007753 3.0745231525 3.0873455297 3.1001679069 3.112990284 3.112990284 
3.1258126612 3.1386350384 3.1386350384 3.1514574156 3.1642797927 3.1642797927 3.1642797927 3.1514574156 3.1514574156 
3.1386350384 3.1258126612 3.1258126612 3.1258126612 3.112990284 3.1001679069 3.0873455297 3.0745231525 3.0745231525 
3.0745231525 3.0745231525 3.0745231525 3.0745231525 3.0745231525 3.0745231525 3.0745231525 3.0745231525 3.0745231525 
3.0745231525 3.0745231525 3.0745231525 3.0745231525 3.0745231525 3.0873455297 3.0873455297 3.0745231525 3.0617007753 
3.0488783982 3.036056021 3.036056021 3.036056021 3.036056021 3.0488783982 3.0488783982 3.0617007753 3.0745231525 
3.0873455297 3.1001679069 3.1001679069 3.112990284 3.1258126612 3.1386350384 3.1514574156 3.1514574156 2.9462993808 
2.9462993808 2.9591217579 2.9591217579 2.9719441351 2.9719441351 2.9847665123 2.9847665123 2.9975888895 2.9975888895 
3.0104112666 3.0104112666 3.0232336438 3.0232336438 3.036056021 3.036056021 3.0488783982 3.0488783982 3.0617007753 
3.0617007753 3.0745231525 3.0745231525 3.0873455297 3.0873455297 3.1001679069 3.1001679069 3.112990284 3.112990284 
3.1258126612 3.1258126612 3.1386350384 3.1386350384 3.1514574156 3.1514574156 2.9462993808 2.9591217579 2.9719441351 
2.9847665123 2.9975888895 3.0104112666 3.0232336438 3.036056021 3.0488783982 3.0617007753 3.0745231525 3.0873455297 
3.1001679069 3.112990284 3.1258126612 3.1386350384 3.1514574156 3.1642797927 2.9462993808 2.9591217579 2.9719441351 