# vtk DataFile Version 4.2
vtk output
ASCII
DATASET POLYDATA
POINTS 9089 float
-555.217 -3440.08 0 -571.666 -3434.22 0 -547.908 -3434.22 0 
-592.218 -3426.91 0 -619.458 -3417.22 0 -525.843 -3417.22 0 
-666.218 -3400.58 0 -667.25 -3400.22 0 -629.218 -3413.75 0 
-518.215 -3411.56 0 -503.848 -3400.21 0 -703.218 -3387.42 0 
-715.041 -3383.22 0 -482.316 -3383.21 0 -740.219 -3374.26 0 
-762.833 -3366.22 0 -481.212 -3382.34 0 -460.786 -3366.21 0 
-777.219 -3361.1 0 -810.624 -3349.22 0 -444.209 -3353.12 0 
-439.255 -3349.21 0 -851.219 -3334.78 0 -858.416 -3332.22 0 
-814.219 -3347.94 0 -417.724 -3332.21 0 -888.219 -3321.62 0 
-906.208 -3315.22 0 -407.207 -3323.9 0 -396.193 -3315.21 0 
-925.22 -3308.46 0 -953.999 -3298.22 0 -374.662 -3298.2 0 
-999.22 -3282.13 0 -1001.79 -3281.22 0 -962.22 -3295.3 0 
-370.204 -3294.68 0 -353.131 -3281.2 0 -1036.22 -3268.97 0 
-1049.58 -3264.22 0 -333.201 -3265.47 0 -331.6 -3264.2 0 
-1073.22 -3255.81 0 -1097.37 -3247.22 0 -310.069 -3247.2 0 
-1110.22 -3242.65 0 -1145.17 -3230.22 0 -296.198 -3236.25 0 
-288.538 -3230.2 0 -1184.22 -3216.33 0 -1192.96 -3213.22 0 
-1147.22 -3229.49 0 -267.007 -3213.2 0 -1221.22 -3203.17 0 
-1240.75 -3196.22 0 -259.196 -3207.03 0 -245.476 -3196.19 0 
-1258.22 -3190.01 0 -1287.25 -3179.22 0 -223.945 -3179.19 0 
-1332.22 -3166.53 0 -1335.71 -3162.22 0 -1295.22 -3176.36 0 
-222.193 -3177.81 0 -202.414 -3162.19 0 -1346.98 -3145.22 0 
-185.19 -3148.59 0 -180.883 -3145.19 0 -1360.91 -3128.22 0 
-159.352 -3128.19 0 -1368.56 -3111.22 0 -148.187 -3119.37 0 
-137.821 -3111.19 0 -1369.22 -3109.93 0 -1382.98 -3094.22 0 
-116.29 -3094.19 0 -1396.63 -3077.22 0 -111.185 -3090.15 0 
-94.7592 -3077.18 0 -1403.35 -3060.22 0 -74.182 -3060.94 0 
-73.228 -3060.18 0 -1406.22 -3056.57 0 -1422.26 -3043.22 0 
-51.6971 -3043.18 0 -1432.81 -3026.22 0 -37.1795 -3035.17 0 
-15.7378 -3026.18 0 -1443.22 -3010.24 0 -1444.29 -3009.22 0 
-0.177707 -3021.19 0 36.824 -3009.34 0 37.3284 -3009.18 0 
-1460.63 -2992.22 0 73.8257 -2997.48 0 90.3947 -2992.17 0 
-1470.97 -2975.21 0 110.827 -2985.63 0 118.604 -2975.17 0 
-1480.21 -2963.65 0 -1486.2 -2958.21 0 128.219 -2958.17 0 
-1498.55 -2941.21 0 135.35 -2941.17 0 -1511.71 -2924.21 0 
140.85 -2924.17 0 -1517.21 -2917.32 0 -1526.3 -2907.21 0 
145.05 -2907.17 0 -1538.86 -2890.21 0 147.834 -2895 0 
148.941 -2890.17 0 -1552.44 -2873.21 0 152.831 -2873.16 0 
-1554.21 -2871 0 -1566.02 -2856.21 0 156.721 -2856.16 0 
-1579.6 -2839.21 0 160.611 -2839.16 0 -1591.21 -2824.67 0 
-1593.25 -2822.21 0 164.501 -2822.16 0 -1606.76 -2805.21 0 
168.391 -2805.16 0 -1620.33 -2788.21 0 172.281 -2788.16 0 
-1628.21 -2778.35 0 -1633.91 -2771.21 0 176.172 -2771.16 0 
-1647.49 -2754.21 0 180.062 -2754.16 0 -1661.07 -2737.21 0 
183.952 -2737.16 0 -1665.21 -2732.02 0 -1674.65 -2720.21 0 
184.844 -2733.26 0 187.842 -2720.16 0 -1688.22 -2703.2 0 
191.732 -2703.15 0 -1701.8 -2686.2 0 195.622 -2686.15 0 
-1702.2 -2685.7 0 -1715.38 -2669.2 0 199.512 -2669.15 0 
-1728.96 -2652.2 0 203.403 -2652.15 0 -1739.2 -2639.38 0 
-1742.54 -2635.2 0 207.293 -2635.15 0 -1756.11 -2618.2 0 
211.183 -2618.15 0 -1769.69 -2601.2 0 215.073 -2601.15 0 
-1776.2 -2593.05 0 -1783.27 -2584.2 0 218.963 -2584.15 0 
-1796.85 -2567.2 0 221.855 -2571.51 0 222.853 -2567.15 0 
-1810.43 -2550.2 0 226.743 -2550.14 0 -1813.2 -2546.73 0 
-1824 -2533.2 0 230.633 -2533.14 0 -1837.58 -2516.2 0 
234.524 -2516.14 0 -1850.2 -2500.4 0 -1851.16 -2499.2 0 
238.414 -2499.14 0 -1864.74 -2482.2 0 242.304 -2482.14 0 
-1878.32 -2465.2 0 246.194 -2465.14 0 -1887.2 -2454.08 0 
-1891.89 -2448.2 0 250.084 -2448.14 0 -1905.47 -2431.19 0 
253.974 -2431.14 0 -1919.05 -2414.19 0 257.865 -2414.14 0 
-1924.19 -2407.75 0 -1932.63 -2397.19 0 258.865 -2409.76 0 
261.755 -2397.13 0 -1946.21 -2380.19 0 265.645 -2380.13 0 
-1959.78 -2363.19 0 269.535 -2363.13 0 -1961.19 -2361.43 0 
-1973.36 -2346.19 0 273.425 -2346.13 0 -1986.84 -2329.19 0 
277.315 -2329.13 0 -1998.19 -2313.87 0 -1999.43 -2312.19 0 
281.205 -2312.13 0 -2012.06 -2295.19 0 285.095 -2295.13 0 
-2021.79 -2278.19 0 288.986 -2278.13 0 -2029.59 -2261.19 0 
292.876 -2261.13 0 -2035.19 -2246.52 0 -2036.02 -2244.19 0 
295.876 -2249.54 0 297.307 -2244.12 0 -2042.08 -2227.19 0 
303.974 -2227.12 0 -2048.13 -2210.19 0 310.641 -2210.12 0 
-2054.19 -2193.18 0 317.308 -2193.12 0 -2060.25 -2176.18 0 
323.975 -2176.12 0 -2066.31 -2159.18 0 330.642 -2159.12 0 
-2072.18 -2142.69 0 -2072.36 -2142.18 0 332.882 -2153.41 0 
337.309 -2142.12 0 -2078.42 -2125.18 0 343.976 -2125.12 0 
-2084.48 -2108.18 0 350.643 -2108.11 0 -2090.54 -2091.18 0 
357.31 -2091.11 0 -2096.59 -2074.18 0 363.977 -2074.11 0 
3699.98 -2074.49 0 3698.06 -2074.02 0 3700.61 -2074.02 0 
-2102.65 -2057.18 0 369.889 -2059.04 0 370.644 -2057.11 0 
3673.12 -2057.02 0 3716.35 -2057.02 0 -2108.71 -2040.18 0 
377.311 -2040.11 0 3662.98 -2050.11 0 3648.18 -2040.02 0 
3736.98 -2049.44 0 3750.17 -2040.02 0 -2109.18 -2038.86 0 
-2114.77 -2023.18 0 383.978 -2023.11 0 1350.75 -2023.08 0 
1368.92 -2031.56 0 1405.92 -2032.69 0 1442.92 -2033.82 0 
1479.92 -2034.95 0 1516.92 -2033 0 1553.92 -2029.04 0 
1590.92 -2025.08 0 1609.7 -2023.08 0 3625.98 -2024.89 0 
3623.24 -2023.02 0 3773.97 -2023.02 0 -2120.82 -2006.18 0 
390.645 -2006.11 0 1317.07 -2006.08 0 1331.92 -2015.29 0 
1627.93 -2021.13 0 1664.93 -2017.17 0 1701.93 -2013.21 0 
1738.93 -2009.25 0 1768.64 -2006.07 0 3598.29 -2006.02 0 
3773.98 -2023.01 0 3797.77 -2006.02 0 -2126.88 -1989.17 0 
397.311 -1989.11 0 1289.66 -1989.08 0 1294.92 -1992.34 0 
1775.93 -2005.29 0 1812.93 -2001.33 0 1827.81 -1989.07 0 
3588.98 -1999.67 0 3573.35 -1989.02 0 3810.99 -1996.57 0 
3821.57 -1989.01 0 -2132.94 -1972.17 0 398.637 -1972.11 0 
1262.24 -1972.08 0 1841.11 -1972.07 0 3551.98 -1974.45 0 
3548.41 -1972.02 0 3845.37 -1972.01 0 -2138.99 -1955.17 0 
398.173 -1955.1 0 1234.82 -1955.08 0 1257.92 -1969.4 0 
1849.93 -1959.53 0 1853.08 -1955.06 0 3523.47 -1955.02 0 
3847.99 -1970.14 0 3869.17 -1955.01 0 -2145.05 -1938.17 0 
397.849 -1938.1 0 1207.4 -1938.08 0 1220.92 -1946.46 0 
1865.05 -1938.06 0 3514.98 -1949.23 0 3498.53 -1938.02 0 
3884.99 -1943.71 0 3890.02 -1938.01 0 -2146.17 -1935.03 0 
-2151.11 -1921.17 0 397.61 -1921.1 0 1179.98 -1921.08 0 
1183.92 -1923.52 0 1877.02 -1921.06 0 3477.98 -1924.01 0 
3473.59 -1921.02 0 3901.74 -1921.01 0 -2157.17 -1904.17 0 
397.426 -1904.1 0 1152.56 -1904.08 0 1886.94 -1906.98 0 
1888.99 -1904.06 0 3448.65 -1904.02 0 3913.02 -1904.01 0 
-2163.22 -1887.17 0 397.281 -1887.1 0 1125.14 -1887.08 0 
1146.92 -1900.58 0 1900.97 -1887.06 0 3440.98 -1898.79 0 
3423.71 -1887.02 0 3921.99 -1890.49 0 3924.31 -1887.01 0 
-2169.28 -1870.17 0 397.052 -1870.1 0 1102.04 -1870.08 0 
1109.92 -1877.64 0 1912.94 -1870.06 0 3403.98 -1873.57 0 
3398.77 -1870.02 0 3935.59 -1870 0 -2175.34 -1853.17 0 
396.019 -1853.1 0 1089.01 -1853.08 0 1923.94 -1854.43 0 
1924.82 -1853.06 0 3373.83 -1853.02 0 3946.88 -1853 0 
-2181.4 -1836.17 0 394.986 -1836.1 0 1076.01 -1836.08 0 
1935.66 -1836.06 0 3366.98 -1848.35 0 3348.89 -1836.02 0 
3953.9 -1836 0 -2183.17 -1831.2 0 -2187.45 -1819.17 0 
393.953 -1819.1 0 1063.02 -1819.08 0 1072.92 -1832.03 0 
1946.36 -1819.05 0 3329.98 -1823.13 0 3323.95 -1819.02 0 
3954.42 -1819 0 -2193.51 -1802.17 0 392.92 -1802.1 0 
1050.03 -1802.08 0 1956.94 -1802.05 0 3299.01 -1802.02 0 
3954.94 -1802 0 -2199.57 -1785.16 0 391.887 -1785.09 0 
1037.04 -1785.08 0 1960.95 -1795.55 0 1967.05 -1785.05 0 
3292.98 -1800.22 0 3257.93 -1785.02 0 3955.46 -1785 0 
-2205.63 -1768.16 0 390.854 -1768.09 0 1024.05 -1768.08 0 
1035.92 -1783.62 0 1976.94 -1768.05 0 3218.98 -1773.36 0 
3201.13 -1768.02 0 3255.98 -1784.43 0 3955.98 -1768 0 
-2211.68 -1751.16 0 389.821 -1751.09 0 1011.05 -1751.08 0 
1986.83 -1751.05 0 3144.98 -1754.49 0 3143.57 -1751.02 0 
3181.98 -1762.29 0 3956.5 -1751 0 -2217.74 -1734.16 0 
388.788 -1734.09 0 998.344 -1734.07 0 998.925 -1735.2 0 
1996.72 -1734.05 0 3139.86 -1734.02 0 3957.02 -1733.99 0 
-2220.16 -1727.37 0 -2223.8 -1717.16 0 387.785 -1717.09 0 
989.653 -1717.07 0 1997.95 -1731.94 0 2006.61 -1717.05 0 
3135.15 -1717.02 0 3957.54 -1716.99 0 -2229.86 -1700.16 0 
386.844 -1700.09 0 981.068 -1700.07 0 2016.51 -1700.05 0 
3128.96 -1700.02 0 3958.06 -1699.99 0 -2235.91 -1683.16 0 
385.903 -1683.09 0 972.585 -1683.07 0 2026.4 -1683.04 0 
3120.47 -1683.01 0 3958.58 -1682.99 0 -2241.97 -1666.16 0 
384.963 -1666.09 0 964.205 -1666.07 0 2034.96 -1668.51 0 
2036.41 -1666.04 0 3108.11 -1666.01 0 3959.01 -1669.12 0 
3959.1 -1665.99 0 -2248.03 -1649.16 0 384.022 -1649.09 0 
957.073 -1649.07 0 961.928 -1661.42 0 2046.45 -1649.04 0 
3107.99 -1665.88 0 3100.98 -1649.01 0 3959.62 -1648.99 0 
-2254.09 -1632.16 0 383.869 -1632.09 0 950.387 -1632.07 0 
2056.49 -1632.04 0 3093.91 -1632.01 0 3960.15 -1631.99 0 
-2257.16 -1623.54 0 -2260.14 -1615.16 0 385.55 -1615.08 0 
943.702 -1615.07 0 2066.52 -1615.04 0 3086.84 -1615.01 0 
3960.67 -1614.99 0 -2266.2 -1598.16 0 386.904 -1598.08 0 
937.017 -1598.07 0 2071.96 -1605.83 0 2076.56 -1598.04 0 
3079.78 -1598.01 0 3961.19 -1597.99 0 -2272.26 -1581.15 0 
388.016 -1581.08 0 930.332 -1581.07 0 2086.6 -1581.04 0 
3072.8 -1581.01 0 3961.71 -1580.99 0 -2278.31 -1564.15 0 
389.07 -1564.08 0 923.638 -1564.07 0 924.933 -1567.34 0 
2096.64 -1564.04 0 3070.99 -1576.87 0 3065.65 -1564.01 0 
3962.54 -1563.98 0 -2284.37 -1547.15 0 391.494 -1547.08 0 
916.751 -1547.07 0 2106.67 -1547.03 0 3058.58 -1547.01 0 
3964.89 -1546.98 0 -2290.43 -1530.15 0 393.919 -1530.08 0 
909.411 -1530.07 0 2108.97 -1543.15 0 2115.61 -1530.03 0 
3051.51 -1530.01 0 3967 -1529.98 0 -2294.15 -1519.71 0 
-2296.49 -1513.15 0 396.344 -1513.08 0 902.07 -1513.06 0 
2123.49 -1513.03 0 3044.45 -1513.01 0 3968.89 -1512.98 0 
-2302.54 -1496.15 0 398.768 -1496.08 0 894.73 -1496.06 0 
2130.21 -1496.03 0 3037.38 -1496.01 0 3970.6 -1495.98 0 
-2308.6 -1479.15 0 401.193 -1479.08 0 887.389 -1479.06 0 
887.937 -1480.33 0 2136.52 -1479.03 0 3033.99 -1487.86 0 
3030.31 -1479.01 0 3972.16 -1478.98 0 -2314.66 -1462.15 0 
403.617 -1462.08 0 880.049 -1462.06 0 2142.83 -1462.03 0 
[...]
POINT_DATA 9089
SCALARS Pressure double
LOOKUP_TABLE default
3.0873455297 3.0873455297 3.0873455297 3.0873455297 3.0873455297 3.0873455297 3.0873455297 3.0873455297 3.0873455297 
3.0873455297 3.0873455297 3.0873455297 3.0873455297 3.0873455297 3.0873455297 3.0873455297 3.0873455297 3.0873455297 
3.0873455297 3.0873455297 3.0873455297 3.0873455297 3.0873455297 3.0873455297 3.0873455297 3.0873455297 3.0873455297 
3.0873455297 3.0873455297 3.0873455297 3.0873455297 3.0873455297 3.0873455297 3.0873455297 3.0873455297 3.0873455297 
3.0873455297 3.0873455297 3.0873455297 3.0873455297 3.0873455297 3.0873455297 3.0873455297 3.0873455297 3.0873455297 
3.0873455297 3.0873455297 3.0873455297 3.0873455297 3.0873455297 3.0873455297 3.0873455297 3.0873455297 3.0873455297 
3.0873455297 3.0873455297 3.0873455297 3.0873455297 3.0873455297 3.0873455297 3.0873455297 3.0873455297 3.0873455297 
3.0873455297 3.0873455297 3.0873455297 3.0873455297 3.0873455297 3.0873455297 3.0873455297 3.0873455297 3.0873455297 
3.0873455297 3.0873455297 3.0873455297 3.0873455297 3.0873455297 3.0873455297 3.0873455297 3.0873455297 3.0873455297 
3.0873455297 3.0873455297 3.0873455297 3.0873455297 3.0873455297 3.0873455297 3.0873455297 3.0873455297 3.0873455297 
3.0873455297 3.0873455297 3.0873455297 3.0873455297 3.0873455297 3.0873455297 3.0873455297 3.0873455297 3.0873455297 
3.0873455297 3.0873455297 3.0873455297 3.0873455297 3.0873455297 3.0873455297 3.0873455297 3.0873455297 3.0873455297 
3.0873455297 3.0873455297 3.0873455297 3.0873455297 3.0873455297 3.0873455297 3.0873455297 3.0873455297 3.0873455297 
3.0873455297 3.0873455297 3.0873455297 3.0873455297 3.0873455297 3.0873455297 3.0873455297 3.0873455297 3.0873455297 
3.0873455297 3.0873455297 3.0873455297 3.0873455297 3.0873455297 3.0873455297 3.0873455297 3.0873455297 3.0873455297 
3.0873455297 3.0873455297 3.0873455297 3.0873455297 3.0873455297 3.0873455297 3.0873455297 3.0873455297 3.0873455297 
3.0873455297 3.0873455297 3.0873455297 3.0873455297 3.0873455297 3.0873455297 3.0873455297 3.0873455297 3.0873455297 
3.0873455297 3.0873455297 3.0873455297 3.0873455297 3.0873455297 3.0873455297 3.0873455297 3.0873455297 3.0873455297 
3.0873455297 3.0873455297 3.0873455297 3.0873455297 3.0873455297 3.0873455297 3.0873455297 3.0873455297 3.0873455297 
3.0873455297 3.0873455297 3.0873455297 3.0873455297 3.0873455297 3.0873455297 3.0873455297 3.0873455297 3.0873455297 
3.0873455297 3.0873455297 3.0873455297 3.0873455297 3.0873455297 3.0873455297 3.0873455297 3.0873455297 3.0873455297 
3.0873455297 3.0873455297 3.0873455297 3.0873455297 3.0873455297 3.0873455297 3.0873455297 3.0873455297 3.0873455297 
3.0873455297 3.0873455297 3.0873455297 3.0873455297 3.0873455297 3.0873455297 3.0873455297 3.0873455297 3.0873455297 
3.0873455297 3.0873455297 3.0873455297 3.0873455297 3.0873455297 3.0873455297 3.0873455297 3.0873455297 3.0873455297 
3.0873455297 3.0873455297 3.0873455297 3.0873455297 3.0873455297 3.0873455297 3.0873455297 3.0873455297 3.0873455297 
3.0873455297 3.0873455297 3.0873455297 3.0873455297 3.0873455297 3.0873455297 3.0873455297 3.0873455297 3.0873455297 
3.0873455297 3.0873455297 3.0873455297 3.0873455297 3.0873455297 3.0873455297 3.0873455297 3.0873455297 3.0873455297 
3.0873455297 3.0873455297 3.1001679069 3.1001679069 3.1001679069 3.1001679069 3.1001679069 3.1001679069 3.1001679069 
3.1001679069 3.1001679069 3.0873455297 3.0873455297 3.0873455297 3.0873455297 3.0873455297 3.1001679069 3.1001679069 
3.1001679069 3.1001679069 3.1001679069 3.1001679069 3.1001679069 3.0873455297 3.0873455297 3.0873455297 3.0873455297 
3.0873455297 3.1001679069 3.1001679069 3.1001679069 3.1001679069 3.1001679069 3.0873455297 3.0873455297 3.0873455297 
3.0873455297 3.0873455297 3.0873455297 3.1001679069 3.1001679069 3.0873455297 3.0873455297 3.0873455297 3.0873455297 
3.0873455297 3.1001679069 3.1001679069 3.1001679069 3.1001679069 3.0873455297 3.0873455297 3.0873455297 3.0873455297 
3.0873455297 3.1001679069 3.1001679069 3.1001679069 3.0873455297 3.0873455297 3.0873455297 3.0873455297 3.0873455297 
3.0873455297 3.0873455297 3.1001679069 3.1001679069 3.1001679069 3.0873455297 3.0873455297 3.0873455297 3.0873455297 
3.0873455297 3.1001679069 3.1001679069 3.1001679069 3.0873455297 3.0873455297 3.0873455297 3.0873455297 3.1001679069 
3.1001679069 3.1001679069 3.0873455297 3.0873455297 3.0873455297 3.0873455297 3.0873455297 3.0873455297 3.1001679069 
3.1001679069 3.1001679069 3.0873455297 3.0873455297 3.0873455297 3.0873455297 3.0873455297 3.1001679069 3.1001679069 
3.1001679069 3.0873455297 3.0873455297 3.0873455297 3.0873455297 3.1001679069 3.1001679069 3.0873455297 3.0873455297 
3.0873455297 3.0873455297 3.0873455297 3.0873455297 3.1001679069 3.1001679069 3.1001679069 3.0873455297 3.0873455297 
3.0873455297 3.0873455297 3.0873455297 3.1001679069 3.1001679069 3.0873455297 3.0873455297 3.0873455297 3.0873455297 
3.1001679069 3.1001679069 3.1001679069 3.0873455297 3.0873455297 3.0873455297 3.0873455297 3.0873455297 3.1001679069 
3.1001679069 3.1001679069 3.0873455297 3.0873455297 3.0873455297 3.0873455297 3.0873455297 3.0873455297 3.1001679069 
3.1001679069 3.0873455297 3.0873455297 3.0873455297 3.0873455297 3.0873455297 3.0873455297 3.1001679069 3.1001679069 
3.1001679069 3.0873455297 3.0873455297 3.0873455297 3.0873455297 3.0873455297 3.1001679069 3.1001679069 3.1001679069 
3.0873455297 3.0873455297 3.0873455297 3.0873455297 3.1001679069 3.1001679069 3.0873455297 3.0873455297 3.0873455297 
3.0873455297 3.1001679069 3.1001679069 3.0873455297 3.0873455297 3.0873455297 3.0873455297 3.1001679069 3.1001679069 
3.1001679069 3.0873455297 3.0873455297 3.0873455297 3.0873455297 3.0873455297 3.1001679069 3.1001679069 3.1001679069 
3.0873455297 3.0873455297 3.0873455297 3.0873455297 3.0873455297 3.1001679069 3.1001679069 3.0873455297 3.0873455297 
3.0873455297 3.0873455297 3.0873455297 3.1001679069 3.1001679069 3.0873455297 3.0873455297 3.0873455297 3.0873455297 
3.1001679069 3.1001679069 3.1001679069 3.0873455297 3.0873455297 3.0873455297 3.0873455297 3.1001679069 3.1001679069 
3.0873455297 3.0873455297 3.0873455297 3.0873455297 3.1001679069 3.1001679069 3.1001679069 3.0873455297 3.0873455297 
3.0873455297 3.0873455297 3.0873455297 3.1001679069 3.1001679069 3.0873455297 3.0873455297 3.0873455297 3.0873455297 
3.1001679069 3.1001679069 3.1001679069 3.0873455297 3.0873455297 3.0873455297 3.0873455297 3.0873455297 3.1001679069 
3.1001679069 3.0873455297 3.0873455297 3.0873455297 3.0873455297 3.1001679069 3.1001679069 3.0873455297 3.0873455297 
3.0873455297 3.0873455297 3.1001679069 3.1001679069 3.1001679069 3.0873455297 3.0873455297 3.0873455297 3.0873455297 
3.0873455297 3.1001679069 3.1001679069 3.0873455297 3.0873455297 3.0873455297 3.0873455297 3.1001679069 3.1001679069 
3.1001679069 3.0873455297 3.0873455297 3.0873455297 3.0873455297 3.0873455297 3.1001679069 3.1001679069 3.0873455297 
3.0873455297 3.0873455297 3.0873455297 3.0873455297 3.1001679069 3.1001679069 3.0873455297 3.0873455297 3.0873455297 
3.0873455297 3.1001679069 3.1001679069 3.1001679069 3.0873455297 3.0873455297 3.0873455297 3.0873455297 3.0873455297 
3.1001679069 3.1001679069 3.0873455297 3.0873455297 3.0873455297 3.0873455297 3.1001679069 3.1001679069 3.0873455297 
3.0873455297 3.0873455297 3.0873455297 3.1001679069 3.1001679069 3.1001679069 3.0873455297 3.0873455297 3.0873455297 
3.0873455297 3.1001679069 3.1001679069 3.0873455297 3.0873455297 3.0873455297 3.0873455297 3.1001679069 3.1001679069 
3.1001679069 3.0873455297 3.0873455297 3.0873455297 3.0873455297 3.0873455297 3.0873455297 3.1001679069 3.1001679069 
3.0873455297 3.0873455297 3.0873455297 3.0873455297 3.1001679069 3.1001679069 3.0873455297 3.0873455297 3.0873455297 
3.0873455297 3.1001679069 3.1001679069 3.0873455297 3.0873455297 3.0873455297 3.0873455297 3.0873455297 3.1001679069 
3.1001679069 3.1001679069 3.1001679069 3.0873455297 3.0873455297 3.0873455297 3.0873455297 3.1001679069 3.112990284 
3.112990284 3.112990284 3.112990284 3.1001679069 3.0873455297 3.0873455297 3.0873455297 3.0745231525 3.0745231525 
3.0745231525 3.0745231525 3.0745231525 3.0745231525 3.0873455297 3.1001679069 3.112990284 3.112990284 3.112990284 
3.112990284 3.112990284 3.112990284 3.1001679069 3.0873455297 3.0873455297 3.0873455297 3.0745231525 3.0745231525 
3.0745231525 3.0745231525 3.0745231525 3.0745231525 3.0873455297 3.1001679069 3.112990284 3.112990284 3.112990284 
3.112990284 3.112990284 3.1001679069 3.0873455297 3.0873455297 3.0873455297 3.0745231525 3.0745231525 3.0745231525 
3.0745231525 3.0745231525 3.0873455297 3.1001679069 3.1001679069 3.112990284 3.112990284 3.112990284 3.1001679069 
3.0873455297 3.0873455297 3.0873455297 3.0745231525 3.0745231525 3.0745231525 3.0873455297 3.1001679069 3.112990284 
3.112990284 3.112990284 3.1001679069 3.0873455297 3.0873455297 3.0873455297 3.0873455297 3.0745231525 3.0745231525 
3.0745231525 3.0873455297 3.1001679069 3.112990284 3.112990284 3.112990284 3.1001679069 3.0873455297 3.0873455297 
3.0873455297 3.0745231525 3.0745231525 3.0745231525 3.0873455297 3.1001679069 3.112990284 3.112990284 3.112990284 
3.112990284 3.1001679069 3.0873455297 3.0873455297 3.0873455297 3.0873455297 3.0745231525 3.0745231525 3.0873455297 
3.1001679069 3.112990284 3.112990284 3.112990284 3.1001679069 3.0873455297 3.0873455297 3.0873455297 3.0873455297 
3.0745231525 3.0745231525 3.0745231525 3.0745231525 3.0873455297 3.1001679069 3.1001679069 3.112990284 3.112990284 
3.112990284 3.1001679069 3.1001679069 3.0873455297 3.0873455297 3.0873455297 3.0873455297 3.0745231525 3.0745231525 
3.0873455297 3.1001679069 3.112990284 3.112990284 3.112990284 3.1001679069 3.0873455297 3.0873455297 3.0873455297 
3.0745231525 3.0745231525 3.0745231525 3.0873455297 3.0873455297 3.1001679069 3.112990284 3.112990284 3.112990284 
3.1001679069 3.0873455297 3.0873455297 3.0873455297 3.0873455297 3.0745231525 3.0745231525 3.0745231525 3.0873455297 
3.1001679069 3.112990284 3.112990284 3.112990284 3.1001679069 3.0873455297 3.0873455297 3.0873455297 3.0745231525 
3.0745231525 3.0873455297 3.1001679069 3.112990284 3.112990284 3.1001679069 3.0873455297 3.0873455297 3.0873455297 
3.0873455297 3.0873455297 3.0873455297 3.0873455297 3.0873455297 3.0745231525 3.0745231525 3.0745231525 3.0873455297 
3.1001679069 3.112990284 3.112990284 3.112990284 3.112990284 3.1001679069 3.0873455297 3.0873455297 3.0873455297 
3.0873455297 3.0873455297 3.0873455297 3.0873455297 3.0873455297 3.0745231525 3.0745231525 3.0745231525 3.0873455297 
3.1001679069 3.112990284 3.112990284 3.1001679069 3.0873455297 3.0873455297 3.0873455297 3.0873455297 3.0873455297 
3.0873455297 3.0873455297 3.0873455297 3.0873455297 3.0745231525 3.0745231525 3.0745231525 3.0873455297 3.1001679069 
3.1001679069 3.112990284 3.112990284 3.1001679069 3.0873455297 3.0873455297 3.0873455297 3.0873455297 3.0873455297 
3.0873455297 3.0873455297 3.0873455297 3.0745231525 3.0745231525 3.0873455297 3.1001679069 3.112990284 3.112990284 
3.112990284 3.112990284 3.1001679069 3.0873455297 3.0873455297 3.0873455297 3.0873455297 3.0873455297 3.0873455297 
3.0873455297 3.0873455297 3.0873455297 3.0873455297 3.0873455297 3.0873455297 3.0745231525 3.0745231525 3.0745231525 
3.0873455297 3.1001679069 3.112990284 3.112990284 3.1001679069 3.0873455297 3.0873455297 3.0873455297 3.0873455297 
3.0873455297 3.0873455297 3.0873455297 3.0873455297 3.0873455297 3.0873455297 3.0873455297 3.0873455297 3.0873455297 
3.0873455297 3.0873455297 3.0873455297 3.0745231525 3.0745231525 3.0745231525 3.0873455297 3.1001679069 3.112990284 
3.112990284 3.1001679069 3.0873455297 3.0873455297 3.0873455297 3.0873455297 3.0873455297 3.0873455297 3.0873455297 
3.0873455297 3.0873455297 3.0873455297 3.0873455297 3.0873455297 3.0873455297 3.0873455297 3.0745231525 3.0745231525 
3.0745231525 3.0873455297 3.1001679069 3.1001679069 3.112990284 3.112990284 3.112990284 3.112990284 3.1001679069 
3.1001679069 3.0873455297 3.0873455297 3.0873455297 3.0873455297 3.0873455297 3.0873455297 3.0873455297 3.0873455297 
3.0873455297 3.0873455297 3.0873455297 3.0873455297 3.0745231525 3.0745231525 3.0873455297 3.1001679069 3.112990284 
3.112990284 3.1001679069 3.0873455297 3.0873455297 3.0873455297 3.0873455297 3.0873455297 3.0873455297 3.0873455297 
3.0873455297 3.0873455297 3.0873455297 3.0873455297 3.0873455297 3.0873455297 3.0873455297 3.0873455297 3.0745231525 
3.0745231525 3.0873455297 3.1001679069 3.112990284 3.112990284 3.1001679069 3.0873455297 3.0873455297 3.0873455297 
3.0873455297 3.0873455297 3.0873455297 3.0873455297 3.0873455297 3.0873455297 3.0873455297 3.0873455297 3.0873455297 
3.0745231525 3.0745231525 3.0745231525 3.0873455297 3.1001679069 3.112990284 3.112990284 3.112990284 3.1001679069 
3.0873455297 3.0873455297 3.0873455297 3.0873455297 3.0873455297 3.0873455297 3.0873455297 3.0873455297 3.0873455297 
3.0873455297 3.0873455297 3.0873455297 3.0745231525 3.0745231525 3.0745231525 3.0873455297 3.1001679069 3.112990284 
3.112990284 3.112990284 3.1001679069 3.0873455297 3.0873455297 3.0873455297 3.0873455297 3.0873455297 3.0873455297 
3.0873455297 3.0873455297 3.0873455297 3.0873455297 3.0873455297 3.0873455297 3.0745231525 3.0745231525 3.0873455297 
3.1001679069 3.112990284 3.112990284 3.1001679069 3.0873455297 3.0873455297 3.0873455297 3.0873455297 3.0873455297 
3.0873455297 3.0873455297 3.0873455297 3.0873455297 3.0873455297 3.0745231525 3.0745231525 3.0873455297 3.1001679069 
3.1001679069 3.112990284 3.112990284 3.112990284 3.1001679069 3.0873455297 3.0873455297 3.0873455297 3.0873455297 
3.0873455297 3.0873455297 3.0873455297 3.0873455297 3.0873455297 3.0873455297 3.0873455297 3.0873455297 3.0873455297 
3.0745231525 3.0745231525 3.0873455297 3.1001679069 3.112990284 3.1258126612 3.1258126612 3.1258126612 3.1258126612 
3.1258126612 3.1258126612 3.1258126612 3.1258126612 3.112990284 3.112990284 3.1001679069 3.1001679069 3.0873455297 
3.0873455297 3.0873455297 3.0873455297 3.0873455297 3.0873455297 3.0873455297 3.0873455297 3.0873455297 3.0873455297 
3.0873455297 3.0873455297 3.0873455297 3.0873455297 3.0873455297 3.0873455297 3.0873455297 3.0745231525 3.0745231525 
3.0873455297 3.1001679069 3.112990284 3.1258126612 3.1258126612 3.1258126612 3.1258126612 3.112990284 3.1001679069 
3.0873455297 3.0873455297 3.0873455297 3.0873455297 3.0873455297 3.0873455297 3.0873455297 3.0873455297 3.0873455297 
3.0873455297 3.0873455297 3.0873455297 3.0873455297 3.0873455297 3.0873455297 3.0873455297 3.0873455297 3.0873455297 
3.0873455297 3.0745231525 3.0745231525 3.0873455297 3.1001679069 3.112990284 3.1258126612 3.1258126612 3.1258126612 
3.112990284 3.1001679069 3.0873455297 3.0873455297 3.0873455297 3.0873455297 3.0873455297 3.0873455297 3.0873455297 
3.0873455297 3.0873455297 3.0873455297 3.0873455297 3.0873455297 3.0873455297 3.0873455297 3.0873455297 3.0873455297 
3.0873455297 3.0873455297 3.0873455297 3.0745231525 3.0745231525 3.0873455297 3.0873455297 3.1001679069 3.112990284 
3.112990284 3.1258126612 3.1258126612 3.1258126612 3.112990284 3.1001679069 3.0873455297 3.0873455297 3.0873455297 
3.0873455297 3.0873455297 3.0873455297 3.0873455297 3.0873455297 3.0873455297 3.0873455297 3.0873455297 3.0873455297 
3.0873455297 3.0873455297 3.0873455297 3.0873455297 3.0745231525 3.0745231525 3.0745231525 3.0873455297 3.1001679069 
3.1001679069 3.112990284 3.1258126612 3.1258126612 3.1258126612 3.112990284 3.1001679069 3.0873455297 3.0873455297 
3.0873455297 3.0873455297 3.0873455297 3.0873455297 3.0873455297 3.0873455297 3.0873455297 3.0873455297 3.0873455297 
3.0745231525 3.0745231525 3.0617007753 3.0617007753 3.0617007753 3.0745231525 3.0873455297 3.1001679069 3.112990284 
3.1258126612 3.1258126612 3.1258126612 3.112990284 3.112990284 3.1001679069 3.0873455297 3.0873455297 3.0873455297 
3.0873455297 3.0873455297 3.0873455297 3.0873455297 3.0873455297 3.0873455297 3.0873455297 3.0873455297 3.0873455297 
3.0873455297 3.0745231525 3.0617007753 3.0617007753 3.0617007753 3.0617007753 3.0617007753 3.0617007753 3.0617007753 
3.0745231525 3.0873455297 3.1001679069 3.112990284 3.112990284 3.1258126612 3.1258126612 3.1258126612 3.1258126612 
3.112990284 3.1001679069 3.1001679069 3.0873455297 3.0873455297 3.0873455297 3.0873455297 3.0873455297 3.0873455297 
3.0873455297 3.0873455297 3.0873455297 3.0873455297 3.0873455297 3.0745231525 3.0617007753 3.0617007753 3.0617007753 
3.0745231525 3.0873455297 3.1001679069 3.112990284 3.1258126612 3.1258126612 3.112990284 3.1001679069 3.0873455297 
3.0873455297 3.0873455297 3.0873455297 3.0873455297 3.0873455297 3.0873455297 3.0873455297 3.0873455297 3.0745231525 
3.0617007753 3.0617007753 3.0745231525 3.0873455297 3.1001679069 3.112990284 3.1258126612 3.1258126612 3.1258126612 
3.1258126612 3.112990284 3.1001679069 3.0873455297 3.0873455297 3.0873455297 3.0873455297 3.0745231525 3.0617007753 
3.0617007753 3.0617007753 3.0617007753 3.0745231525 3.0873455297 3.1001679069 3.112990284 3.1258126612 3.1258126612 
3.112990284 3.1001679069 3.0873455297 3.0873455297 3.0745231525 3.0617007753 3.0617007753 3.0745231525 3.0873455297 
3.1001679069 3.1001679069 3.112990284 3.112990284 3.1258126612 3.1258126612 3.1258126612 3.112990284 3.112990284 
3.1001679069 3.0873455297 3.0873455297 3.0873455297 3.0745231525 3.0745231525 3.0617007753 3.0617007753 3.0617007753 
3.0617007753 3.0745231525 3.0873455297 3.1001679069 3.112990284 3.1258126612 3.1258126612 3.112990284 3.1001679069 
3.0873455297 3.0873455297 3.0745231525 3.0617007753 3.0617007753 3.0617007753 3.0617007753 3.0745231525 3.0873455297 
3.1001679069 3.112990284 3.112990284 3.1258126612 3.1258126612 3.1258126612 3.112990284 3.1001679069 3.0873455297 
3.0873455297 3.0745231525 3.0617007753 3.0617007753 3.0745231525 3.0745231525 3.0873455297 3.1001679069 3.112990284 
3.1258126612 3.1258126612 3.1258126612 3.112990284 3.1001679069 3.0873455297 3.0873455297 3.0745231525 3.0617007753 
3.0617007753 3.0745231525 3.0873455297 3.1001679069 3.112990284 3.1258126612 3.1258126612 3.1258126612 3.112990284 
3.1001679069 3.0873455297 3.0873455297 3.0745231525 3.0617007753 3.0617007753 3.0617007753 3.0617007753 3.0745231525 
3.0873455297 3.1001679069 3.112990284 3.112990284 3.1258126612 3.1258126612 3.112990284 3.1001679069 3.0873455297 
3.0873455297 3.0745231525 3.0617007753 3.0617007753 3.0745231525 3.0873455297 3.1001679069 3.1001679069 3.112990284 
3.1258126612 3.1258126612 3.1258126612 3.112990284 3.1001679069 3.0873455297 3.0873455297 3.0745231525 3.0745231525 
3.0617007753 3.0617007753 3.0745231525 3.0873455297 3.1001679069 3.112990284 3.1258126612 3.1258126612 3.112990284 
3.1001679069 3.1001679069 3.0873455297 3.0873455297 3.0745231525 3.0617007753 3.0617007753 3.0745231525 3.0873455297 
3.1001679069 3.112990284 3.112990284 3.1258126612 3.1258126612 3.1258126612 3.1258126612 3.112990284 3.112990284 
3.1001679069 3.0873455297 3.0873455297 3.0873455297 3.0745231525 3.0617007753 3.0617007753 3.0745231525 3.0873455297 
3.0873455297 3.1001679069 3.112990284 3.1258126612 3.1258126612 3.112990284 3.1001679069 3.0873455297 3.0873455297 
3.0745231525 3.0617007753 3.0617007753 3.0617007753 3.0745231525 3.0873455297 3.1001679069 3.1001679069 3.112990284 
3.1258126612 3.1258126612 3.1386350384 3.1386350384 3.1386350384 3.1386350384 3.1386350384 3.1258126612 3.112990284 
3.1001679069 3.0873455297 3.0745231525 3.0745231525 3.0745231525 3.0745231525 3.0873455297 3.0745231525 3.0617007753 
3.0488783982 3.0488783982 3.0488783982 3.0488783982 3.0488783982 3.0617007753 3.0745231525 3.0873455297 3.1001679069 
3.112990284 3.112990284 3.1258126612 3.1386350384 3.1386350384 3.1386350384 3.1386350384 3.1258126612 3.112990284 
3.1001679069 3.0873455297 3.0745231525 3.0745231525 3.0745231525 3.0745231525 3.0745231525 3.0873455297 3.0745231525 
3.0617007753 3.0617007753 3.0488783982 3.0488783982 3.0488783982 3.0488783982 3.0617007753 3.0745231525 3.0745231525 
3.0873455297 3.1001679069 3.112990284 3.1258126612 3.1386350384 3.1386350384 3.1386350384 3.1386350384 3.1258126612 