# vtk DataFile Version 4.2
vtk output
ASCII
DATASET UNSTRUCTURED_GRID
POINTS 1740 double
2144.07 -94.44003 0 2911 0 0 16.54298 -37.82236 0 
5.09149 -21.30132 0 1.27433 -10.75385 0 0 0 0 
2.54575 15.14293 0 6.36291 23.76126 0 14.00014 34.89063 0 
30.50239 50.70793 0 33.39435 -52.93479 0 2050.91 -103.7862 0 
60.1465 -69.72165 0 88.83633 -83.2817 0 118.7656 -94.71113 0 
153.4168 -105.7022 0 199.5806 -117.771 0 261.4466 -130.7139 0 
345.846 -144.1892 0 460.3522 -157.0592 0 608.4185 -167.1903 0 
783.2313 -172.4016 0 941.0559 -172.4533 0 1063.409 -170.1096 0 
1164.153 -166.8746 0 1263.449 -162.682 0 1375.468 -156.8941 0 
1513.293 -148.414 0 1665.281 -137.5317 0 1791.864 -127.3721 0 
2195.451 -89.09491 0 2273.924 -80.67077 0 2383.731 -68.3513 0 
2517.64 -52.47337 0 2649.227 -35.9232 0 2740.773 -23.82991 0 
2804.387 -15.13419 0 2848.802 -8.916218 0 2881.944 -4.196067 0 
56.61447 67.79801 0 84.09687 81.25172 0 112.4783 92.48395 0 
142.1748 102.3504 0 174.8563 111.6168 0 213.124 120.8806 0 
260.3759 130.5151 0 324.6539 141.1779 0 418.1422 152.9178 0 
535.6656 162.9871 0 690.9154 170.4255 0 902.6513 172.7852 0 
1100.32 169.0517 0 1270.99 162.3262 0 1462.794 151.6837 0 
1631.287 140.0952 0 1747.993 131 0 1922.788 115.9027 0 
2069.56 101.951 0 2128.804 96.0021 0 2297.147 78.11721 0 
2414.379 64.80104 0 2554.023 47.99319 0 2673.693 32.73885 0 
2757.97 21.50315 0 2814.297 13.7575 0 2852.02 8.460961 0 
2882.272 4.148909 0 1791.052 127.4402 0 1366.894 157.3738 0 
1444.38 -152.8302 0 1547.039 146.1296 0 1589.287 -143.1614 0 
1878.731 119.8675 0 1997.072 108.9828 0 1185.654 166.0472 0 
1882.536 -119.5292 0 1971.323 -111.4145 0 1684.777 136.0292 0 
2099.317 -98.9855 0 2234.809 84.9091 0 2181.695 90.53914 0 
1728.573 -132.5703 0 1718.815 133.3509 0 1834.825 123.7132 0 
1960.305 112.4444 0 2033.69 105.4648 0 2099.184 98.99892 0 
2214.291 -90.344569528 396.8421 2955.512 -2.2986107624 396.8421 158.0786 -27.182117848 396.8421 
147.0109 -11.224942582 396.8421 143.3217 -1.0379672461 396.8421 142.09 9.3482303855 396.8421 
144.5505 23.973473505 396.8421 148.2398 32.29713025 396.8421 155.621 43.045783171 396.8421 
171.5701 58.320739997 396.8421 174.3652 -41.780895997 396.8421 2124.254 -98.895850697 396.8421 
200.2206 -58.002444519 396.8421 227.9488 -71.113090297 396.8421 256.8748 -82.171982155 396.8421 
290.3647 -92.817413938 396.8421 334.981 -104.52451751 396.8421 394.7733 -117.11195711 396.8421 
476.3434 -130.27825097 396.8421 587.0114 -142.97121507 396.8421 730.1145 -153.18476602 396.8421 
899.0676 -158.83695585 396.8421 1051.602 -159.53455844 396.8421 1169.853 -157.82131514 396.8421 
1267.221 -155.17627715 396.8421 1363.188 -151.61877379 396.8421 1471.452 -146.60174188 396.8421 
1604.657 -139.13618566 396.8421 1751.55 -129.43925265 396.8421 1873.891 -120.30709389 396.8421 
2263.949 -85.438875816 396.8421 2339.792 -77.685937816 396.8421 2445.918 -66.303220296 396.8421 
2575.338 -51.558502998 396.8421 2702.515 -36.106132102 396.8421 2790.992 -24.764331313 396.8421 
2852.473 -16.58381237 396.8421 2895.4 -10.721841161 396.8421 2927.431 -6.2652003567 396.8421 
196.807 74.821174741 396.8421 223.3682 87.805316236 396.8421 250.7983 98.639448811 396.8421 
279.4994 108.14924143 396.8421 311.0855 117.07232361 396.8421 348.0705 125.98137344 396.8421 
393.7383 135.22950601 396.8421 455.8617 145.43275162 396.8421 546.2162 156.5984497 396.8421 
659.8003 166.05127009 396.8421 809.846 172.78961936 396.8421 1014.485 174.32011476 396.8421 
1205.528 169.89149539 396.8421 1370.477 162.60747138 396.8421 1555.851 151.37607435 396.8421 
1718.696 139.30496972 396.8421 1831.49 129.89771679 396.8421 2000.426 114.37374869 396.8421 
2142.278 100.10958626 396.8421 2199.537 94.04862232 396.8421 2362.236 75.89665024 396.8421 
2475.539 62.446022324 396.8421 2610.501 45.542753988 396.8421 2726.16 30.270538824 396.8421 
2807.613 19.061892084 396.8421 2862.05 11.354126632 396.8421 2898.509 6.0923114397 396.8421 
2927.749 1.81372976 396.8421 1873.106 126.22797328 396.8421 1463.165 157.35556472 396.8421 
1538.054 -143.03696415 396.8421 1637.272 145.57629284 396.8421 1678.104 -134.46869319 396.8421 
1957.846 118.44097437 396.8421 2072.22 107.2899539 396.8421 1288 166.60350071 396.8421 
1961.524 -113.21684908 396.8421 2047.334 -105.84890184 396.8421 1770.393 135.09357123 396.8421 
2171.038 -94.507819992 396.8421 2301.989 82.777965471 396.8421 2250.655 88.4931864 396.8421 
1812.721 -124.9876827 396.8421 1803.29 132.32471882 396.8421 1915.411 122.392246 396.8421 
2036.686 110.83115253 396.8421 2107.61 103.69539935 396.8421 2170.909 97.100417389 396.8421 
2284.511 -85.562558546 793.6842 3000.027 -3.1727259593 793.6842 299.6143 -19.185166132 793.6842 
288.9304 -3.8044833004 793.6842 285.3691 6.0144266694 793.6842 284.1801 16.025471947 793.6842 
286.5551 30.122684738 793.6842 290.1167 38.145902173 793.6842 297.2417 48.506497663 793.6842 
312.6379 63.229323353 793.6842 315.336 -33.257190265 793.6842 2197.597 -93.465898035 793.6842 
340.2947 -48.895855837 793.6842 367.0612 -61.539056084 793.6842 394.9839 -72.208052121 793.6842 
427.3123 -82.484033617 793.6842 470.3812 -93.794982986 793.6842 528.0998 -105.97516142 793.6842 
606.8411 -118.75121861 793.6842 713.6708 -131.13819511 793.6842 851.8104 -141.23790312 793.6842 
1014.904 -147.06299141 793.6842 1162.147 -148.13784519 793.6842 1276.298 -146.83345572 793.6842 
1370.288 -144.58953631 793.6842 1462.927 -141.47703158 793.6842 1567.436 -137.01407537 793.6842 
1696.021 -130.29532991 793.6842 1837.82 -121.49244331 793.6842 1955.917 -113.15192741 793.6842 
2332.447 -81.019333415 793.6842 2405.659 -73.826167999 793.6842 2508.105 -63.2379522 793.6842 
2633.037 -49.47691538 793.6842 2755.801 -35.003942999 793.6842 2841.209 -24.349614205 793.6842 
2900.561 -16.649305156 793.6842 2941.997 -11.123637838 793.6842 2972.917 -6.9184766655 793.6842 
336.9995 79.130970357 793.6842 362.6396 91.640488124 793.6842 389.1182 102.07460824 793.6842 
416.8239 111.22883173 793.6842 447.3145 119.81284898 793.6842 483.0167 128.37583781 793.6842 
527.1009 137.25339734 793.6842 587.0697 147.02712609 793.6842 674.2905 157.67866011 793.6842 
783.9349 166.61552195 793.6842 928.7766 172.82455801 793.6842 1126.317 173.81919222 793.6842 
1310.735 169.02044727 793.6842 1469.963 161.48887724 793.6842 1648.908 150.04148531 793.6842 
1806.105 137.82788301 793.6842 1914.987 128.34632399 793.6842 2078.064 112.74923446 793.6842 
2214.996 98.461339909 793.6842 2270.269 92.401374196 793.6842 2427.326 74.288768306 793.6842 
2536.699 60.900773252 793.6842 2666.98 44.11491654 793.6842 2778.628 28.984646551 793.6842 
2857.255 17.901234558 793.6842 2909.806 10.289707151 793.6842 2945.001 5.0982647288 793.6842 
2973.224 0.87967669978 793.6842 1955.16 124.65417489 793.6842 1559.437 156.12142846 793.6842 
1631.729 -133.81437688 793.6842 1727.505 144.16517444 793.6842 1766.921 -126.06646369 793.6842 
2036.96 116.83037735 793.6842 2147.368 105.64885142 793.6842 1390.347 165.60144005 793.6842 
2040.511 -106.65102231 793.6842 2123.346 -99.875934529 793.6842 1856.009 133.57995651 793.6842 
2242.759 -89.412981962 793.6842 2369.167 81.148903492 793.6842 2319.614 86.852273785 793.6842 
1896.869 -117.43190515 793.6842 1887.765 130.7900555 793.6842 1995.998 120.79863571 793.6842 
2113.066 109.1971881 793.6842 2181.531 102.04956323 793.6842 2242.634 95.451870984 793.6842 
2354.732 -80.243286703 1190.526 3044.539 -2.8388000511 1190.526 441.15 -13.152852563 1190.526 
430.8497 1.6440364048 1190.526 427.4164 11.090732307 1190.526 426.2701 20.722693429 1190.526 
428.5601 34.286696276 1190.526 431.9934 42.006720828 1190.526 438.8627 51.97597713 1190.526 
453.7057 66.142676936 1190.526 456.3069 -26.690181755 1190.526 2270.94 -87.616868283 1190.526 
480.3688 -41.7346122 1190.526 506.1737 -53.89821841 1190.526 533.0934 -64.163988459 1190.526 
564.26 -74.053870287 1190.526 605.7815 -84.944173621 1190.526 661.4265 -96.679840606 1190.526 
737.3385 -109.00707452 1190.526 840.33 -120.99421133 1190.526 973.5064 -130.836861 1190.526 
1130.74 -136.63850633 1190.526 1272.693 -137.89231744 1190.526 1382.742 -136.83252221 1190.526 
1473.356 -134.84927568 1190.526 1562.666 -132.03971993 1190.526 1663.42 -127.96759771 1190.526 
1787.385 -121.79330018 1190.526 1924.09 -113.6620331 1190.526 2037.944 -105.93131987 1190.526 
2400.946 -75.999833491 1190.526 2471.527 -69.27462945 1190.526 2570.292 -59.361010571 1190.526 
2690.735 -46.452815631 1190.526 2809.091 -32.849338558 1190.526 2891.43 -22.817950917 1190.526 
2948.647 -15.559232144 1190.526 2988.597 -10.34614914 1190.526 3018.403 -6.3764615446 1190.526 
477.1918 81.442750722 1190.526 501.9109 93.4772769 1190.526 527.4382 103.51306034 1190.526 
554.1485 112.31527475 1190.526 583.5435 120.56609027 1190.526 617.963 128.79252388 1190.526 
660.4633 137.31451931 1190.526 718.2775 146.68480218 1190.526 802.3645 156.8710555 1190.526 
908.0698 165.37015416 1190.526 1047.707 171.17913532 1190.526 1238.151 171.85588434 1190.526 
1415.942 166.92640823 1190.526 1569.449 159.37578746 1190.526 1741.965 147.98716309 1190.526 
1893.514 135.8824028 1190.526 1998.484 126.50340905 1190.526 2155.702 111.09826327 1190.526 
2287.714 97.0056409 1190.526 2341.001 91.03334293 1190.526 2492.415 73.198278984 1190.526 
2597.858 60.029607151 1190.526 2723.46 43.534945733 1190.526 2831.095 28.682295237 1190.526 
2906.899 17.811130402 1190.526 2957.56 10.349715266 1190.526 2991.49 5.2626297895 1190.526 
3018.699 1.13002416 1190.526 2037.214 122.85439163 1190.526 1655.708 154.0282998 1190.526 
1725.403 -125.03184054 1190.526 1817.738 142.15915036 1190.526 1855.738 -117.89151359 1190.526 
2116.075 115.12684021 1190.526 2222.516 104.09279687 1190.526 1492.694 163.48848289 1190.526 
2119.498 -99.892549908 1190.526 2199.357 -93.589057225 1190.526 1941.625 131.678762 1190.526 
2314.479 -83.836949826 1190.526 2436.346 79.950649212 1190.526 2388.573 85.566883203 1190.526 
1981.017 -109.90092111 1190.526 1972.24 128.91945052 1190.526 2076.584 119.04543757 1190.526 
[...]
POINT_DATA 1740
FIELD FieldData 1
Pressure 1 1740 double
3.1117701155 3.0253611402 3.0094242845 2.9872876904 2.9789548852 2.9585621461 2.9711665134 2.9883510466 3.0192567953 
3.0333178452 3.0099952612 3.1144700942 3.033382306 3.0477128404 3.0645994011 3.0625052263 3.0792244538 3.0852851357 
3.1045519616 3.1113965985 3.1281971395 3.1376864169 3.142340308 3.1460651548 3.1440558393 3.1405655904 3.1370670071 
3.1314905461 3.1248931599 3.1205870183 3.1098595917 3.1066264716 3.1014890785 3.0942995107 3.0843003723 3.0746513759 
3.0647550155 3.0565413425 3.0474878484 3.0694651918 3.0816960043 3.0955805657 3.1093092789 3.1158840204 3.1227003923 
3.1299842758 3.1380102805 3.1536339516 3.1650385821 3.1839925642 3.19731758 3.2019400365 3.2097651203 3.2162194251 
3.217532789 3.2218042046 3.1784354587 3.160768798 3.1376539161 3.0904257913 3.0800483033 3.0686837133 3.0585479969 
3.0488099853 3.0382686395 3.0312430106 3.0313419782 3.224406988 3.212769783 3.134935475 3.2171774663 3.1285425655 
3.2011476963 3.1589663522 3.2069962112 3.1173759775 3.1155416226 3.2163039711 3.1131195943 3.0881899867 3.1028114053 
3.1224863221 3.2176600534 3.2171172675 3.1668659083 3.1579672182 3.159432829 3.1101406977 3.0230593376 3.0284034551 
3.0010727266 3.0086365131 2.9869846063 2.9962034281 3.0085352025 3.03620277 3.0556623382 3.0336347114 3.112354803 
3.0538461113 3.0664762205 3.080666429 3.0862135926 3.0991127346 3.1101668158 3.1212022517 3.1286638113 3.1363044966 
3.1428294868 3.1458569424 3.1472681208 3.1460253626 3.1413003714 3.1361505894 3.1278771676 3.121703699 3.1174316543 
3.1080136313 3.1040748021 3.0986665029 3.0918601237 3.0816165774 3.0717925674 3.0617315445 3.054091219 3.0379264297 
3.0885695543 3.1098339058 3.1226225828 3.1307808965 3.140405079 3.1453016106 3.1502268056 3.1618412386 3.1732259061 
3.1806217355 3.1920616152 3.2004877397 3.2049520514 3.2128625434 3.2186285711 3.2164620203 3.2188744251 3.1641331586 
3.1578248587 3.1046986405 3.0784982799 3.0728068875 3.0629118573 3.0522095214 3.0421267165 3.0326000814 3.0277137553 
3.0278112856 3.2123838491 3.2155132441 3.1338849614 3.2167071845 3.1243503486 3.1836182413 3.1532363409 3.2085168407 
3.1144246964 3.1133642631 3.2136807744 3.1113821586 3.0801743929 3.0839614999 3.1197996093 3.2159236921 3.2014230354 
3.1577836666 3.1549460126 3.1512167168 3.1097395969 3.0198360101 3.029339703 3.0017051528 3.005422085 2.9865300652 
2.9999363382 3.0127586326 3.0412789779 3.0631163962 3.0416846289 3.1123596932 3.0566394912 3.0754724205 3.0936801232 
3.102219138 3.1125955258 3.1206913903 3.1345959395 3.14220835 3.1472934741 3.1510968357 3.1527423996 3.1515374923 
3.1479615979 3.141474274 3.1351763683 3.1257284805 3.1205163831 3.1175827016 3.1073569929 3.1031568521 3.0975416322 
3.0910080535 3.0800359154 3.0699232873 3.0598394044 3.0525905308 3.03800651 3.0964931896 3.1191013323 3.1383396129 
3.1476943947 3.1553180062 3.1658493139 3.175840313 3.1810337728 3.1906849167 3.1983105313 3.2049883446 3.2127686878 
3.2140437676 3.2200948287 3.2240368506 3.2189338928 3.220590193 3.1562631628 3.1445259584 3.0757654947 3.0743182505 
3.0686240283 3.0585342947 3.0476627223 3.0374597376 3.0284505532 3.0234699389 3.0229371961 3.2062298476 3.2219439799 
3.1308375302 3.2215035788 3.1217717026 3.173574177 3.1499892751 3.2165815135 3.1144302153 3.113586225 3.2161797032 
3.1113049126 3.0784844157 3.0756977861 3.119183102 3.2164617716 3.1927568449 3.1517979536 3.1525684434 3.107612332 
3.110028074 3.0192649989 3.0295474271 3.0018985113 3.0053340289 2.9845262103 2.9959117319 3.0091824396 3.042396351 
3.0640779018 3.0402621118 3.1128254544 3.0601236836 3.0772160784 3.0947816612 3.1051027515 3.1160419973 3.1254022968 
3.1381276133 3.1453535432 3.1529225873 3.1555087426 3.1567897885 3.1539965641 3.1485422051 3.1408808104 3.133007828 
3.1244969222 3.1206085894 3.1185521569 3.1074470332 3.1028935914 3.0980014212 3.0914493075 3.0803728423 3.0699503361 
3.0599804048 3.0527946361 3.038543502 3.1016469628 3.1252388442 3.1417543497 3.1537920707 3.16324094 3.1735275093 
3.1871050054 3.1972747448 3.2064763629 3.2133859313 3.2194373668 3.2254132385 3.2257339933 3.2301374466 3.2327393785 
3.2252769312 3.2275298505 3.1533132763 3.1005356761 3.064138909 3.0711781355 3.0640995666 3.0559138639 3.0454179409 
3.0351053083 3.0261456812 3.0205100807 3.0197540516 3.2086545904 3.2315877931 3.1285281265 3.2295903567 3.1209048696 
3.1696332093 3.147733448 3.2279218125 3.1157553748 3.1144716777 3.2222202606 3.1116082122 3.0763157957 3.0716549987 
3.1191895866 3.2227280527 3.1917588274 3.1488034235 3.1490271971 3.0645513673 3.1095306194 3.0195305933 3.0310287148 
3.001845927 3.0096536887 2.9886497766 2.9973132967 3.0102564605 3.0446792057 3.0658068635 3.0395938373 3.1126314319 
3.0611632811 3.0780749727 3.094457679 3.1053525709 3.1169354767 3.1271760723 3.1398425795 3.1478535494 3.1553954295 
3.1573738683 3.1579514019 3.1539769193 3.146734097 3.137959684 3.1294956376 3.1233506073 3.1204260991 3.1181577051 
3.1071353666 3.1027139728 3.098214495 3.0917607878 3.0810363685 3.0705169257 3.0607489213 3.0534832888 3.0398297671 
3.1041417362 3.1278715064 3.1435820527 3.1571453111 3.1655008498 3.1776736599 3.1898927841 3.198274903 3.2109792242 
3.2217891728 3.2300143211 3.2351997301 3.2364405237 3.240112801 3.2416403133 3.2328663309 3.2347167295 3.1499740722 
3.0593185235 3.0620677955 3.0675532245 3.0606099522 3.0542531049 3.0442485772 3.0341558128 3.0249683044 3.019525637 
3.0178812471 3.2142948678 3.2414202444 3.1256942991 3.2398261266 3.1204392647 3.1679597033 3.1447908107 3.238560118 
3.1167005013 3.1146092926 3.2284048069 3.1114584971 3.0708448198 3.0639363872 3.119445763 3.2302560307 3.1940566512 
3.1458655758 3.1379735237 3.0576984376 3.1089381649 3.0198219362 3.0317355129 3.0030309859 3.0113647591 2.9897231688 
2.9988289523 3.0119431644 3.0459326677 3.0682238914 3.0400081801 3.1118666018 3.0617810433 3.0790686313 3.0951145806 
3.1061710207 3.1179718932 3.1286825221 3.1415246283 3.1496705274 3.1576393478 3.1592254296 3.1587020228 3.1530294327 
3.1438364414 3.134544532 3.126182231 3.1226650967 3.1204022293 3.1182454039 3.1064405862 3.102089275 3.0980356776 
3.0916897323 3.0812252871 3.0708503561 3.0612889229 3.0539793522 3.0409680744 3.1063972599 3.1306099485 3.1459650079 
3.1598570683 3.1687660103 3.1813128842 3.1938410784 3.2029996707 3.2164596226 3.2271688417 3.2376856436 3.2425142933 
3.2453120744 3.2493315305 3.2508864514 3.2432773673 3.2464394521 3.1453389465 3.0617828836 3.0625520832 3.0633940503 
3.0580454483 3.0523775899 3.0427783893 3.0332355541 3.0239423876 3.0192363237 3.0167285033 3.224828798 3.2505650015 
3.1233167133 3.2510141548 3.1198894914 3.1662757396 3.1405249475 3.2477148549 3.1166857086 3.1139643178 3.2380805134 
3.110744667 3.0646068185 3.0618858163 3.1189284422 3.240216343 3.2000365817 3.1403322835 3.0972257336 3.0682603071 
3.1078987715 3.0195110454 3.0318695401 3.0030732838 3.0112696368 2.9899357544 2.9988626035 3.0122656833 3.0462625788 
3.0691519375 3.040335569 3.1107056493 3.0622530085 3.0798617196 3.0960910243 3.1072861152 3.1190725752 3.1300163148 
3.1430766551 3.1517365242 3.1593337208 3.1606901262 3.1588893963 3.1513138459 3.1406247166 3.1315624712 3.1236283737 
3.1222023466 3.1209948157 3.1180927206 3.105578908 3.101296771 3.0974793572 3.0913755353 3.0810802134 3.0708581702 
3.0614935396 3.0542540901 3.0418652823 3.10751131 3.1321015256 3.1474503727 3.1617749569 3.1706262159 3.1834650255 
3.1963983032 3.2056843882 3.219530277 3.2316186264 3.2427116029 3.2496080883 3.2527670976 3.257941273 3.2582681728 
3.2554565939 3.263967683 3.1392933554 3.0658256177 3.0644263733 3.0581657325 3.0543320834 3.0489216859 3.0398115622 
3.0310110522 3.0219283527 3.0182403468 3.0152466126 3.2436323853 3.2588447017 3.122113565 3.2606230688 3.1202668979 
3.165887079 3.1308903149 3.2554631959 3.1159654975 3.1129556214 3.2517390534 3.1096159812 3.0608053713 3.061469754 
3.119034345 3.2541808469 3.2143554466 3.1319801462 3.0456658048 3.0700662714 3.1069352664 3.0184695602 3.0323595982 
3.0033183945 3.0112954613 2.9907182532 2.9991988073 3.0124148613 3.0465867788 3.0695767037 3.0409240563 3.1099202368 
3.0629219322 3.0806436032 3.0970257488 3.1083352495 3.1201628407 3.1312793325 3.1444846532 3.1535148942 3.1605811492 
3.1617816497 3.1586297571 3.149012599 3.1379076038 3.1289983711 3.1220904049 3.1233523403 3.1214538639 3.1180363404 
3.1049045211 3.1007188386 3.0970708284 3.0911061747 3.0808965429 3.070738688 3.0615687848 3.0544061901 3.0427182119 
3.108083284 3.1331079829 3.148307371 3.1628680663 3.1720352183 3.1848504897 3.1980105352 3.2075820368 3.2215796394 
3.2345161635 3.2458903955 3.2534033628 3.2583958345 3.2649865088 3.2665465283 3.267725421 3.2852273747 3.1345999595 
3.0598224786 3.0613102757 3.0539744458 3.0505276454 3.0445888794 3.0357971933 3.0275608396 3.0189380371 3.0160793161 
3.0127680827 3.2756048584 3.2647366018 3.1213437237 3.26805122 3.1214994184 3.1739836192 3.1089266053 3.261433475 
3.1152033973 3.1121304589 3.2679970672 3.1086857408 3.0554060383 3.0577304138 3.1192315924 3.2722706054 3.2475343591 
3.1219172853 3.0336927605 3.0578398272 3.1064138476 3.0169652315 3.0328545112 3.0036690104 3.0116005732 2.9912975229 
2.9996439805 3.0128036195 3.0469071195 3.0698878366 3.0416721952 3.1094665823 3.0636670513 3.0814824349 3.0979721182 
3.1093417418 3.1212441631 3.1325045302 3.14583111 3.1550379856 3.161967484 3.1628386823 3.1583168842 3.1465852908 
3.135215526 3.1275104341 3.1215791018 3.1237992003 3.1218964139 3.1178526215 3.1045121941 3.1003404781 3.0969330396 
3.0908690927 3.0807272146 3.0705765332 3.0615901814 3.0544688833 3.0435623455 3.1084409811 3.1337845351 3.1487336537 
3.1633717256 3.1728147698 3.185712961 3.199153953 3.2089447901 3.2229337704 3.2365110694 3.2479817354 3.2568575827 
3.2622736152 3.2698231683 3.2718493536 3.2719325241 3.2965705266 3.1394087532 3.0553638633 3.0564794015 3.048974626 
3.0456349359 3.0396785794 3.0313592727 3.0235857166 3.015311221 3.0130559926 3.0093413949 3.3185948956 3.2714915403 
3.1216977455 3.2719316746 3.1225115078 3.2019834214 3.0766095971 3.2656162385 3.1149418675 3.1116713623 3.2775126911 
3.1081487841 3.0490502459 3.0492491625 3.1199051033 3.2870891245 3.2978481643 3.1126633185 3.0432654582 3.0589530632 
3.1061421175 3.0152267655 3.0330878658 3.0038368291 3.011790586 2.9914274728 2.9997488419 3.0129393347 3.0468081679 
3.0698906095 3.0423013148 3.1091958626 3.0643047662 3.0822243757 3.09882269 3.1102655312 3.1222084934 3.1335825011 
3.1470266367 3.1563625587 3.1633090172 3.1636909437 3.1577261303 3.144079915 3.1328704811 3.1266573238 3.12194246 
3.1241974061 3.1222999526 3.1180696838 3.1041742959 3.1000480226 3.0967999126 3.0906256053 3.0806245811 3.0704411355 
3.0615901548 3.0545079748 3.0444938736 3.1084303873 3.1340187356 3.1488924985 3.163522092 3.1730132004 3.1861035388 
3.1997353636 3.2098173357 3.2238598726 3.2377707857 3.2495543109 3.2584526339 3.2651447044 3.2736474743 3.2762038553 
3.2752301306 3.3062393419 3.1684417288 3.0478983358 3.0486482204 3.0420656236 3.0396131637 3.0338970688 3.0263472886 
3.0191648498 3.0112354671 3.0094788634 3.0056448325 3.3387940069 3.2742782311 3.1224388012 3.2755333163 3.123531407 
3.259120832 3.0522428957 3.2687207047 3.1151740765 3.1114372069 3.2798115636 3.1077370823 3.0409301204 3.0399637976 
3.1202087042 3.2921296236 3.344712493 3.1107924122 3.047332154 3.0552625056 3.1059456041 3.0131364861 3.033196827 
3.0038606188 3.0117250549 2.9912501797 2.9996471449 3.0128258275 3.0464644398 3.0696152084 3.0427473331 3.1089136137 
3.0648193128 3.0828177376 3.0994920047 3.1110283535 3.1229989922 3.1344976821 3.1479897029 3.1574994701 3.1644678529 
3.1643185881 3.1569377341 3.1417403244 3.1311560315 3.1263590934 3.1224440586 3.1253730232 3.1228339806 3.1187503474 
3.1038738578 3.0997776508 3.0966460259 3.0903829208 3.0806258996 3.0704583992 3.0617061687 3.0546069272 3.0454545392 
3.1080941715 3.1338539906 3.1487852811 3.1634693854 3.1729554051 3.1861383148 3.1998306758 3.2102279439 3.2243724722 
3.2384176047 3.2507576069 3.2595691086 3.266623064 3.2755765724 3.2779831356 3.2758116335 3.2978723199 3.2470134476 
3.0305373709 3.0374231545 3.0342448558 3.0323204579 3.0267514737 3.0204033967 3.0140793946 3.0064800609 3.0056232667 
3.0013891592 3.3257198907 3.2772132025 3.1228882891 3.2767739213 3.1246591545 3.3423320634 3.031695602 3.2707722424 
3.1156752133 3.1113690518 3.2747922942 3.1074956178 3.0327158831 3.0313986482 3.12048861 3.2886972962 3.3656023403 
3.1320436961 3.0449261796 3.0508870885 3.1058190577 3.0107308599 3.0333142142 3.0039333277 3.0116500078 2.9910083007 
2.9996221767 3.0127390692 3.0460604075 3.0692717111 3.0431124677 3.1088947482 3.065235086 3.0833149574 3.1000271459 
3.111639893 3.1236871035 3.135346854 3.1488441441 3.1585583165 3.1655392992 3.1649266013 3.1561357324 3.1402771819 
3.1301620369 3.1266935223 3.1232728699 3.1267003158 3.123308815 3.1192965845 3.1036136679 3.0995231778 3.0963920854 
3.0900860332 3.0806026015 3.0705272985 3.061836081 3.0546790405 3.0463211167 3.10771407 3.1336038393 3.1485681031 
3.1633584521 3.1728569276 3.1861309975 3.1998330038 3.2103348662 3.2247129857 3.2388098126 3.251747928 3.2604813605 
3.2674913525 3.2763297687 3.2807979391 3.2775348591 3.2926497 3.3493143151 3.0147653729 3.0222563191 3.0248260816 
3.0235623444 3.0185630318 3.0136036987 3.0081923797 3.0011599249 3.0014099415 2.9963868995 3.329414491 3.2790518515 
3.1246435749 3.2790187582 3.1258544473 3.4086326115 3.0205892993 3.2717311056 3.1159132635 3.1112594746 3.2750536086 
3.107315116 3.0220575499 3.020034782 3.1207237642 3.2841122363 3.3445226072 3.1993716944 3.0363787447 3.0382440664 
3.1056455396 3.0082163282 3.0334853814 3.0041455547 3.0116700716 2.9907849355 2.9996018416 3.0127251306 3.0458231773 
3.0690688227 3.0433855374 3.1088031345 3.0656384109 3.0838436135 3.1004995925 3.1122188088 3.1243904856 3.1362483752 
3.1497594415 3.1596813364 3.1666827885 3.1657834356 3.1557208117 3.1397399991 3.1297612238 3.1273671217 3.1239456955 
3.1285275612 3.1234891617 3.1194400567 3.1032672825 3.099139409 3.0959661119 3.0896315556 3.0804386351 3.0704227807 
3.0618070694 3.0545497908 3.0469579692 3.1075690302 3.133502914 3.1485864854 3.1634865566 3.1728978824 3.1862478664 
3.1999027154 3.2104953203 3.2250666495 3.2391797146 3.2524294343 3.261357529 3.2681545079 3.2770242729 3.2829220866 
3.281803861 3.2860858401 3.4485886022 2.992867409 3.0064014825 3.0145680782 3.0151793536 3.0108318786 3.0071156272 
3.0022802093 2.9959167842 2.9969521215 2.9909845174 3.3158429995 3.2800402707 3.1262348166 3.2839016305 3.1268496615 
3.405627623 3.0224738776 3.2722726558 3.1158472843 3.1110683651 3.2791407098 3.1070963983 3.0102833332 3.0077012823 
3.1206184482 3.2806931172 3.3411671137 3.3124222859 3.0173487496 3.022087984 3.105318871 3.0060695755 3.0338163917 
3.0045827776 3.0118921333 2.9906618145 2.9998086802 3.0128599325 3.0464901086 3.0693680242 3.0437673232 3.1085033287 
3.0661909073 3.0844253806 3.1010646398 3.1128856125 3.1251809438 3.1372036148 3.1508029189 3.1609819763 3.168028146 
3.1670098507 3.1559878889 3.1397605317 3.1297480244 3.1282110952 3.124670457 3.1299117501 3.12368866 3.1194885677 
3.1027765406 3.0986191866 3.0954376011 3.089042405 3.0800910289 3.0700174291 3.0614764247 3.0540807941 3.0471146731 
3.1077319075 3.1336520425 3.1488322857 3.163802161 3.173223745 3.1865272087 3.2001468591 3.2107337303 3.2254690479 
3.2395562482 3.252863103 3.2620352032 3.2688241929 3.2778845541 3.2833226104 3.2845711433 3.2837909804 3.5784585766 
2.9737827832 2.9902843397 3.0059146973 3.0084357029 3.0050598328 3.002286077 2.997555276 2.9918769443 2.993088355 
2.9865314319 3.2965502765 3.2807835953 3.1271582094 3.2848533281 3.1278258344 3.3956372262 3.0322592656 3.2726673333 
3.1157135023 3.1108648211 3.2801343082 3.1067420883 3.0001265113 2.9962347113 3.1204992593 3.2775963944 3.3282695875 
3.4628609862 2.988943247 3.0088229484 3.1049528789 3.0046759231 3.0341595537 3.0053265635 3.0124491365 2.9908003037 
3.0002197502 3.0133020153 3.0468786297 3.0698555498 3.0441744446 3.1082421283 3.0667401134 3.085000149 3.1014959142 
3.1133176956 3.125822987 3.1379734386 3.1518835473 3.1621221129 3.1695203549 3.1684627678 3.1570413731 3.1402660015 
3.1293946847 3.128536244 3.1249101088 3.1305604525 3.1241643834 3.119793072 3.1022034152 3.097986053 3.09487987 
3.0883351811 3.0794980129 3.0692696778 3.0607926754 3.0532606772 3.0466953397 3.1077590112 3.1337777439 3.1491057413 
3.1640044102 3.1734998691 3.186762368 3.2003988868 3.210973042 3.2256357683 3.2397804528 3.2530814507 3.2623820472 
3.2694350885 3.2785879405 3.2831793958 3.2851065786 3.2831661619 3.6140757603 2.9657337204 2.983214701 3.0016398516 
3.0054353575 3.0032029549 3.0005818777 2.9952918189 2.9900789122 2.9908604745 2.9838183776 3.3074053806 3.2820244052 
3.1275760439 3.284846038 3.1283278481 3.4145076236 3.0261681343 3.2731577336 3.1157991959 3.1107620242 3.2771293644 
3.1063538614 2.9952397772 2.9897896706 3.1208163184 3.2750762277 3.334399169 3.6268111654 2.9712088393 2.9924607492 
3.1045653905 3.004439131 3.0333685372 3.0052708466 3.0128728603 2.9904314383 3.000162706 3.0133869116 3.0462456657 
3.0697348914 3.044001561 3.1075586139 3.0663874001 3.0847549443 3.101120625 3.1131032499 3.1259744816 3.1376742696 
3.152596761 3.1621792226 3.1710401429 3.1704587361 3.1590950662 3.1415653527 3.1294718878 3.128386401 3.1250964204 
3.1310795504 3.1247518974 3.1200509574 3.1016885145 3.0976436959 3.0943432102 3.0874390453 3.0785633943 3.0681499389 
3.0597418069 3.0521977328 3.0455122515 3.1074865753 3.1334872355 3.1492816294 3.1639960126 3.1735681873 3.1868531346 
3.2003553564 3.211010061 3.2255194946 3.240053652 3.2536416796 3.2629979949 3.2705036283 3.279717756 3.2848796227 
3.2856826014 3.287741465 3.5950247564 2.9840519888 2.9887780004 3.0043364504 3.0085021098 3.0067159907 3.0028732524 
2.9964762519 2.9910508841 2.990987925 2.983691044 3.3140929893 3.2845786092 3.1279629463 3.2859283239 3.1289751446 
3.3880484302 2.9991473347 3.2742587588 3.1158296997 3.1107460677 3.2816970626 3.1059847111 2.9981937528 2.9938370659 
3.1214874731 3.2781436741 3.348291271 3.4724073128 2.9975768269 2.9895656804 3.1045974428 3.0060663874 3.0316513101 
3.0033814142 3.0096136395 2.9882964905 2.9999341483 3.0131503344 3.047990372 3.0702050827 3.0426570162 3.107255085 
3.0655824844 3.083859073 3.10072288 3.1118028656 3.1250877401 3.1361213036 3.153674168 3.1637969676 3.173701599 
3.1751802549 3.1629405214 3.1437927636 3.1301844685 3.1295273205 3.125271067 3.1307299802 3.1250653207 3.1201697846 
3.1020800211 3.0980235421 3.0940221337 3.0868543152 3.0775548808 3.0667989699 3.058376632 3.0506798771 3.0425926986 
3.1077141846 3.133167554 3.149954516 3.1650260219 3.1746118064 3.1874109887 3.2007531441 3.2118387708 3.2271343454 
3.2423023499 3.2556176214 3.2682280269 3.2735897181 3.2833537162 3.2856264357 3.2856966526 3.2955380485 3.3462183237 
3.016807245 3.0121419216 3.0168169508 3.0198759537 3.0166745112 3.0098989021 3.0023442949 2.9959560408 2.9949272666 
2.9873321145 3.3217856955 3.2863557613 3.1282398969 3.2865490757 3.1292947497 3.3517457312 3.0396356813 3.2770804872 
3.1161554708 3.1107386233 3.2854684372 3.1067171757 3.0140960278 3.0114674434 3.1221551756 3.283739222 3.3396688925 
3.0871720337 3.029587848 3.0163629937 3.104508389 3.0114891075 3.0326083188 3.0063836821 3.0127978782 2.9908498187 
3.0047258374 3.0171107538 3.0542870932 3.0734528489 3.045293799 3.1093364911 3.0613573074 3.0829772604 3.099591388 
3.1132088328 3.1274429436 3.1381022282 3.1596214267 3.1768355582 3.1814228942 3.1797896032 3.1657187728 3.1420369188 
3.1301604491 3.1292842388 3.1273667499 3.1310512054 3.1251979174 3.1193309884 3.1017931407 3.0986117018 3.0937779212 
3.0844123146 3.0757250186 3.0640418264 3.0558315209 3.0477549789 3.0379495686 3.1077858891 3.1347334915 3.1546736126 
3.1697230496 3.1782992855 3.1950196344 3.2052409938 3.2151953239 3.2340709135 3.2472742512 3.2628917603 3.2710525096 