# vtk DataFile Version 4.2
vtk output
ASCII
DATASET POLYDATA
POINTS 9706 float
405.855 -2067.24 5800 404.075 -2067.15 5800 406.04 -2067.15 5800 
376.854 -2064.3 5800 355.457 -2054.15 5800 431.182 -2054.14 5800 
347.854 -2050.54 5800 328.05 -2041.15 5800 434.857 -2052.38 5800 
456.792 -2041.14 5800 318.854 -2036.78 5800 300.644 -2028.15 5800 
463.859 -2037.52 5800 482.169 -2028.14 5800 289.854 -2023.03 5800 
273.237 -2015.15 5800 492.861 -2022.66 5800 507.545 -2015.14 5800 
260.854 -2009.27 5800 245.83 -2002.15 5800 521.864 -2007.8 5800 
532.921 -2002.14 5800 231.855 -1995.52 5800 218.424 -1989.15 5800 
550.866 -1992.94 5800 558.298 -1989.13 5800 202.855 -1981.76 5800 
191.017 -1976.15 5800 579.868 -1978.08 5800 583.674 -1976.13 5800 
173.855 -1968 5800 163.61 -1963.15 5800 608.87 -1963.22 5800 
609.05 -1963.13 5800 144.855 -1954.25 5800 136.204 -1950.15 5800 
634.426 -1950.13 5800 115.855 -1940.49 5800 108.797 -1937.15 5800 
637.872 -1948.38 5800 666.874 -1938.06 5800 669.856 -1937.13 5800 
86.8548 -1926.74 5800 81.3906 -1924.15 5800 695.876 -1928.98 5800 
711.401 -1924.12 5800 57.8549 -1912.98 5800 53.9756 -1911.15 5800 
724.877 -1919.91 5800 752.947 -1911.12 5800 28.8549 -1899.23 5800 
26.8658 -1898.15 5800 753.879 -1910.83 5800 782.881 -1901.75 5800 
794.493 -1898.12 5800 2.62733 -1885.14 5800 811.882 -1892.68 5800 
836.039 -1885.12 5800 -0.144887 -1883.68 5800 -21.3897 -1872.14 5800 
840.884 -1883.6 5800 869.886 -1874.52 5800 877.585 -1872.11 5800 
-29.1447 -1867.94 5800 -45.3384 -1859.14 5800 898.888 -1865.45 5800 
919.13 -1859.11 5800 -58.1445 -1852.19 5800 -69.287 -1846.14 5800 
927.889 -1856.37 5800 956.891 -1847.29 5800 960.676 -1846.11 5800 
-87.1442 -1836.45 5800 -93.2356 -1833.14 5800 985.893 -1838.22 5800 
1002.22 -1833.11 5800 -116.144 -1820.71 5800 -117.184 -1820.14 5800 
1014.89 -1829.14 5800 1043.77 -1820.1 5800 -143.662 -1807.14 5800 
1043.9 -1820.06 5800 1072.9 -1810.99 5800 1085.31 -1807.1 5800 
-174.144 -1795.43 5800 -177.478 -1794.14 5800 -145.144 -1806.57 5800 
1101.9 -1801.91 5800 1126.86 -1794.1 5800 -203.144 -1784.28 5800 
-211.295 -1781.14 5800 1130.9 -1792.83 5800 1159.9 -1784.05 5800 
1169.91 -1781.1 5800 4002 -1783.21 5800 3978.08 -1781 5800 
4031 -1781.83 5800 4048.44 -1781 5800 4118 -1781.48 5800 
4096.95 -1781 5800 4147.01 -1782.15 5800 4176.01 -1782.82 5800 
4205.01 -1783.5 5800 4234.01 -1784.17 5800 4263.01 -1784.84 5800 
4292.01 -1785.51 5800 4321.01 -1786.17 5800 4350.01 -1786.65 5800 
4379.01 -1787.09 5800 4408.01 -1787.52 5800 4437.02 -1787.96 5800 
4466.02 -1781.56 5800 4466.26 -1780.98 5800 -232.144 -1773.13 5800 
-245.111 -1768.14 5800 1188.9 -1775.49 5800 1213.94 -1768.09 5800 
3886 -1769.33 5800 3875.64 -1768 5800 3915 -1773.04 5800 
3944 -1776.76 5800 3973 -1780.47 5800 4060 -1780.45 5800 
4089 -1780.81 5800 4471.68 -1767.98 5800 -261.145 -1761.98 5800 
-278.927 -1755.14 5800 1217.91 -1766.92 5800 1246.91 -1758.36 5800 
1257.97 -1755.09 5800 3857 -1765.61 5800 3851.43 -1755 5800 
4477.11 -1754.98 5800 -290.145 -1750.83 5800 -301.036 -1742.14 5800 
1275.91 -1749.8 5800 1302.01 -1742.09 5800 3842.62 -1742 5800 
4482.54 -1741.98 5800 -311.241 -1729.14 5800 1304.91 -1741.23 5800 
1312.49 -1729.09 5800 3830.44 -1729 5800 4487.96 -1728.98 5800 
-318.876 -1716.14 5800 1323.78 -1716.09 5800 3828 -1726.89 5800 
3822.14 -1716 5800 4493.39 -1715.98 5800 -319.143 -1715.69 5800 
-326.511 -1703.14 5800 1333.91 -1707.65 5800 1337.87 -1703.08 5800 
3815.28 -1703 5800 4495.02 -1712.06 5800 4498.81 -1702.98 5800 
-334.145 -1690.14 5800 1349.16 -1690.08 5800 3808.87 -1690 5800 
4504.24 -1689.97 5800 -341.78 -1677.14 5800 1360.45 -1677.08 5800 
3802.7 -1677 5800 4509.66 -1676.97 5800 -348.14 -1666.31 5800 
-349.415 -1664.14 5800 1362.92 -1674.24 5800 1371.74 -1664.08 5800 
3799 -1669.43 5800 3796.32 -1664 5800 4515.09 -1663.97 5800 
-357.049 -1651.14 5800 1383.03 -1651.08 5800 3789.67 -1651 5800 
4520.51 -1650.97 5800 -364.684 -1638.14 5800 1391.92 -1640.83 5800 
1394.31 -1638.08 5800 3782.95 -1638 5800 4524.03 -1642.36 5800 
4525.83 -1637.97 5800 -372.319 -1625.14 5800 1405.6 -1625.08 5800 
3776.23 -1624.99 5800 4531.06 -1624.97 5800 -377.137 -1616.93 5800 
-379.953 -1612.14 5800 1416.13 -1612.08 5800 3770.01 -1612.95 5800 
3769.51 -1611.99 5800 4536.29 -1611.97 5800 -387.588 -1599.14 5800 
1420.93 -1604.89 5800 1424.24 -1599.07 5800 3762.79 -1598.99 5800 
4541.52 -1598.97 5800 -395.222 -1586.14 5800 1431.65 -1586.07 5800 
3756.07 -1585.99 5800 4546.75 -1585.97 5800 -402.857 -1573.13 5800 
1439.05 -1573.07 5800 3749.35 -1572.99 5800 4551.99 -1572.96 5800 
-406.135 -1567.55 5800 -410.492 -1560.13 5800 1446.46 -1560.07 5800 
3742.63 -1559.99 5800 4553.04 -1570.35 5800 4557.22 -1559.96 5800 
-418.126 -1547.13 5800 1449.93 -1553.97 5800 1453.86 -1547.07 5800 
3741.01 -1556.85 5800 3735.92 -1546.99 5800 4562.45 -1546.96 5800 
-425.761 -1534.13 5800 1463.64 -1534.07 5800 3729.2 -1533.99 5800 
4567.68 -1533.96 5800 -433.396 -1521.13 5800 1476.82 -1521.07 5800 
3722.48 -1520.99 5800 4572.91 -1520.96 5800 -435.132 -1518.18 5800 
-441.03 -1508.13 5800 1478.93 -1519.07 5800 1490.6 -1508.06 5800 
3715.76 -1507.99 5800 4578.15 -1507.96 5800 -448.665 -1495.13 5800 
1504.38 -1495.06 5800 3712.01 -1500.74 5800 3709.04 -1494.99 5800 
4582.04 -1498.28 5800 4583.38 -1494.96 5800 -456.3 -1482.13 5800 
1507.94 -1491.7 5800 1518.31 -1482.06 5800 3702.32 -1481.99 5800 
4588.61 -1481.96 5800 -463.934 -1469.13 5800 1532.44 -1469.06 5800 
3695.6 -1468.99 5800 4593.84 -1468.95 5800 -464.129 -1468.8 5800 
-471.569 -1456.13 5800 1536.94 -1464.95 5800 1546.79 -1456.06 5800 
3688.88 -1455.98 5800 4599.07 -1455.95 5800 -479.203 -1443.13 5800 
1561.21 -1443.06 5800 3683.02 -1444.64 5800 3682.16 -1442.98 5800 
4604.31 -1442.95 5800 -486.811 -1430.13 5800 1565.94 -1438.79 5800 
1575.32 -1430.06 5800 3675.44 -1429.98 5800 4609.54 -1429.95 5800 
-493.126 -1419.02 5800 -494.207 -1417.13 5800 1589.78 -1417.05 5800 
3668.72 -1416.98 5800 4611.05 -1426.2 5800 4614.77 -1416.95 5800 
-501.572 -1404.13 5800 1594.95 -1412.44 5800 1603.79 -1404.05 5800 
3662.01 -1403.98 5800 4620 -1403.95 5800 -508.938 -1391.12 5800 
1617.64 -1391.05 5800 3655.29 -1390.98 5800 4625.23 -1390.95 5800 
-516.304 -1378.12 5800 1623.95 -1385.3 5800 1631.67 -1378.05 5800 
3654.02 -1388.53 5800 3648.87 -1377.98 5800 4630.47 -1377.95 5800 
-522.123 -1367.85 5800 -523.686 -1365.12 5800 1645.52 -1365.05 5800 
3644.15 -1364.98 5800 4635.7 -1364.95 5800 -531.195 -1352.12 5800 
1652.95 -1358.07 5800 1659.37 -1352.05 5800 3642.11 -1351.98 5800 
4640.06 -1354.12 5800 4640.93 -1351.94 5800 -538.868 -1339.12 5800 
1673.22 -1339.05 5800 3640.07 -1338.98 5800 4646.16 -1338.94 5800 
-546.542 -1326.12 5800 1681.96 -1330.84 5800 1687.07 -1326.04 5800 
3638.03 -1325.98 5800 4651.4 -1325.94 5800 -551.12 -1318.36 5800 
-554.215 -1313.12 5800 1700.91 -1313.04 5800 3635.99 -1312.98 5800 
4654.63 -1312.94 5800 -561.888 -1300.12 5800 1710.96 -1303.61 5800 
1713.22 -1300.04 5800 3633.95 -1299.97 5800 4643 -1299.94 5800 
-569.562 -1287.12 5800 1720.2 -1287.04 5800 3631.91 -1286.97 5800 
4628.97 -1286.94 5800 4640.06 -1297.22 5800 -577.235 -1274.12 5800 
1725.7 -1274.04 5800 3629.87 -1273.97 5800 4614.94 -1273.94 5800 
-580.118 -1269.23 5800 -584.908 -1261.12 5800 1729.69 -1261.04 5800 
3627.83 -1260.97 5800 4600.91 -1260.94 5800 4611.06 -1270.35 5800 
-592.582 -1248.12 5800 1732.93 -1248.04 5800 3625.79 -1247.97 5800 
4586.88 -1247.94 5800 -600.255 -1235.12 5800 1736.16 -1235.04 5800 
3625.03 -1243.13 5800 3623.75 -1234.97 5800 4572.85 -1234.94 5800 
4582.06 -1243.47 5800 -607.928 -1222.11 5800 1739.39 -1222.03 5800 
3617.91 -1221.97 5800 4558.82 -1221.94 5800 -609.115 -1220.1 5800 
-615.602 -1209.11 5800 1739.97 -1219.73 5800 1742.62 -1209.03 5800 
3610.74 -1208.97 5800 4544.79 -1208.94 5800 4553.06 -1216.6 5800 
-623.275 -1196.11 5800 1745.86 -1196.03 5800 3601.86 -1195.97 5800 
4530.76 -1195.94 5800 -630.948 -1183.11 5800 1749.09 -1183.03 5800 
3596.03 -1187.44 5800 3592.98 -1182.97 5800 4516.73 -1182.94 5800 
4524.06 -1189.73 5800 -638.112 -1170.98 5800 -638.621 -1170.11 5800 
1752.32 -1170.03 5800 3584.09 -1169.97 5800 4502.7 -1169.93 5800 
-646.295 -1157.11 5800 1755.54 -1157.03 5800 3575.23 -1156.97 5800 
4488.67 -1156.93 5800 4495.07 -1162.86 5800 -653.968 -1144.11 5800 
1758.67 -1144.03 5800 3567.03 -1144.66 5800 3566.58 -1143.96 5800 
4473.58 -1143.93 5800 -661.641 -1131.11 5800 1761.87 -1131.03 5800 
3558.03 -1130.96 5800 4454.97 -1130.93 5800 4466.07 -1138.65 5800 
-667.109 -1121.85 5800 -669.315 -1118.11 5800 1765.13 -1118.03 5800 
2544.76 -1118 5800 2552 -1127.21 5800 2581 -1120.03 5800 
2583.6 -1118 5800 3549.47 -1117.96 5800 4436.27 -1117.93 5800 
4437.07 -1118.49 5800 -676.988 -1105.11 5800 1768.28 -1105.02 5800 
2534.53 -1105 5800 2600.25 -1105 5800 3540.92 -1104.96 5800 
4417.58 -1104.93 5800 -684.661 -1092.11 5800 1768.98 -1102.04 5800 
1771.27 -1092.02 5800 2524.31 -1092 5800 2610.01 -1097.38 5800 
2616.91 -1091.99 5800 3538.04 -1100.58 5800 3532.11 -1091.96 5800 
4402.47 -1091.93 5800 4408.07 -1098.32 5800 -692.335 -1079.11 5800 
1775.22 -1079.02 5800 2514.08 -1079 5800 2523 -1090.34 5800 
2633.56 -1078.99 5800 3523.26 -1078.96 5800 4394.68 -1078.93 5800 
-696.107 -1072.72 5800 -700.008 -1066.11 5800 1784.25 -1066.02 5800 
2503.86 -1066 5800 2639.01 -1074.74 5800 2650.21 -1065.99 5800 
3514.53 -1065.96 5800 4389.59 -1065.93 5800 -707.681 -1053.11 5800 
1793.19 -1053.02 5800 2493.63 -1052.99 5800 2494 -1053.47 5800 
2668.01 -1053.51 5800 2669.04 -1052.99 5800 3509.04 -1057.7 5800 
3505.74 -1052.96 5800 4386.02 -1052.93 5800 -715.355 -1040.1 5800 
1797.98 -1046.04 5800 1802.11 -1040.02 5800 2475.81 -1039.99 5800 
2697.01 -1041.88 5800 2701.88 -1039.99 5800 3496.7 -1039.96 5800 
4383.37 -1039.93 5800 -723.028 -1027.1 5800 1811.06 -1027.02 5800 
2431.78 -1027 5800 2436 -1028.21 5800 2465.01 -1036.51 5800 
2726.01 -1030.42 5800 2735.34 -1026.98 5800 3488.72 -1026.96 5800 
4381.6 -1026.93 5800 -725.104 -1023.59 5800 -730.701 -1014.1 5800 
[...]
POINT_DATA 9706
SCALARS Pressure double
LOOKUP_TABLE default
3.0891265041 3.0891265041 3.0891265041 3.0891265041 3.0891265041 3.0891265041 3.0891265041 3.0891265041 3.0891265041 
3.0891265041 3.0891265041 3.0891265041 3.0891265041 3.0891265041 3.0891265041 3.0891265041 3.0891265041 3.0891265041 
3.0891265041 3.0891265041 3.0891265041 3.0891265041 3.0891265041 3.0891265041 3.0891265041 3.0891265041 3.0891265041 
3.0891265041 3.0891265041 3.0891265041 3.0891265041 3.0891265041 3.0891265041 3.0891265041 3.0891265041 3.0891265041 
3.0891265041 3.0891265041 3.0891265041 3.0891265041 3.0891265041 3.0891265041 3.0891265041 3.0891265041 3.0891265041 
3.0891265041 3.0891265041 3.0891265041 3.0891265041 3.0891265041 3.0891265041 3.0891265041 3.0891265041 3.0891265041 
3.0891265041 3.0891265041 3.0891265041 3.0891265041 3.0891265041 3.0891265041 3.0891265041 3.0891265041 3.0891265041 
3.0891265041 3.0891265041 3.0891265041 3.0891265041 3.0891265041 3.0891265041 3.0891265041 3.0891265041 3.0891265041 
3.0891265041 3.0891265041 3.0891265041 3.0891265041 3.0891265041 3.0891265041 3.0891265041 3.0891265041 3.0891265041 
3.0891265041 3.0891265041 3.0891265041 3.0891265041 3.0891265041 3.0891265041 3.0891265041 3.0891265041 3.0891265041 
3.0891265041 3.0891265041 3.0891265041 3.0891265041 3.0891265041 3.0891265041 3.0891265041 3.0891265041 3.0891265041 
3.0891265041 3.0891265041 3.0891265041 3.0891265041 3.0891265041 3.0891265041 3.0891265041 3.0891265041 3.0891265041 
3.0891265041 3.0891265041 3.0891265041 3.0891265041 3.0891265041 3.0891265041 3.0891265041 3.0891265041 3.0891265041 
3.0891265041 3.0891265041 3.0891265041 3.0891265041 3.0891265041 3.0891265041 3.0891265041 3.0891265041 3.0891265041 
3.0891265041 3.0891265041 3.0891265041 3.0891265041 3.0891265041 3.0891265041 3.0891265041 3.0891265041 3.0891265041 
3.0891265041 3.0891265041 3.0891265041 3.0891265041 3.0891265041 3.0891265041 3.0891265041 3.0891265041 3.0891265041 
3.0891265041 3.0891265041 3.0891265041 3.0891265041 3.0891265041 3.0891265041 3.0891265041 3.0891265041 3.0891265041 
3.0891265041 3.0891265041 3.0891265041 3.0891265041 3.0891265041 3.0891265041 3.0891265041 3.0891265041 3.0891265041 
3.0891265041 3.0891265041 3.0891265041 3.0891265041 3.0891265041 3.0891265041 3.0891265041 3.0891265041 3.0891265041 
3.0891265041 3.0891265041 3.0891265041 3.0891265041 3.0891265041 3.0891265041 3.0891265041 3.0891265041 3.0891265041 
3.0891265041 3.0891265041 3.0891265041 3.0891265041 3.0891265041 3.0891265041 3.0891265041 3.0891265041 3.0891265041 
3.0891265041 3.0891265041 3.0891265041 3.0891265041 3.0891265041 3.0891265041 3.0891265041 3.0891265041 3.0891265041 
3.0891265041 3.0891265041 3.0891265041 3.0891265041 3.0891265041 3.0891265041 3.0891265041 3.0891265041 3.0891265041 
3.0891265041 3.0891265041 3.0891265041 3.0891265041 3.0891265041 3.0891265041 3.0891265041 3.0891265041 3.0891265041 
3.0891265041 3.0891265041 3.0891265041 3.0891265041 3.0891265041 3.0891265041 3.0891265041 3.0891265041 3.0891265041 
3.0891265041 3.0891265041 3.0891265041 3.0891265041 3.0891265041 3.0891265041 3.0891265041 3.0891265041 3.0891265041 
3.0891265041 3.0891265041 3.0891265041 3.0891265041 3.0891265041 3.0891265041 3.0891265041 3.0891265041 3.0891265041 
3.0891265041 3.0891265041 3.0891265041 3.0891265041 3.0891265041 3.0891265041 3.0891265041 3.0891265041 3.0891265041 
3.0891265041 3.0891265041 3.0891265041 3.0891265041 3.0891265041 3.0891265041 3.0891265041 3.0891265041 3.0891265041 
3.0891265041 3.0891265041 3.0891265041 3.0891265041 3.0891265041 3.0891265041 3.0891265041 3.0891265041 3.0891265041 
3.0891265041 3.0891265041 3.0891265041 3.0891265041 3.0891265041 3.0891265041 3.0891265041 3.0891265041 3.0891265041 
3.0891265041 3.0891265041 3.0891265041 3.0891265041 3.0891265041 3.0891265041 3.0891265041 3.0891265041 3.0891265041 
3.0891265041 3.0891265041 3.0891265041 3.0891265041 3.0891265041 3.0891265041 3.0891265041 3.0891265041 3.0891265041 
3.0891265041 3.0891265041 3.0891265041 3.0891265041 3.0891265041 3.0891265041 3.0891265041 3.0891265041 3.0891265041 
3.0891265041 3.0891265041 3.0891265041 3.0891265041 3.0891265041 3.0891265041 3.0891265041 3.0891265041 3.0891265041 
3.0891265041 3.0891265041 3.0891265041 3.0891265041 3.0891265041 3.0891265041 3.0891265041 3.0891265041 3.0891265041 
3.0891265041 3.0891265041 3.0891265041 3.0891265041 3.0891265041 3.0891265041 3.0891265041 3.0891265041 3.0891265041 
3.0891265041 3.0891265041 3.0891265041 3.0891265041 3.0891265041 3.0891265041 3.0891265041 3.0891265041 3.0891265041 
3.0891265041 3.0891265041 3.0891265041 3.0891265041 3.0891265041 3.0891265041 3.0891265041 3.0891265041 3.0891265041 
3.0891265041 3.0891265041 3.0891265041 3.0891265041 3.0891265041 3.0891265041 3.0891265041 3.0891265041 3.0891265041 
3.0891265041 3.0891265041 3.0891265041 3.0891265041 3.0891265041 3.0891265041 3.0891265041 3.0891265041 3.0891265041 
3.0891265041 3.0891265041 3.0891265041 3.0891265041 3.0891265041 3.0891265041 3.0891265041 3.0891265041 3.0891265041 
3.0891265041 3.0891265041 3.0891265041 3.1020761598 3.1020761598 3.1020761598 3.1020761598 3.0891265041 3.0891265041 
3.0891265041 3.0891265041 3.0891265041 3.1020761598 3.1020761598 3.0891265041 3.0891265041 3.0891265041 3.0891265041 
3.0891265041 3.1020761598 3.1020761598 3.1020761598 3.0891265041 3.0891265041 3.0891265041 3.0891265041 3.0891265041 
3.0891265041 3.1020761598 3.1020761598 3.1020761598 3.0891265041 3.0891265041 3.0891265041 3.0891265041 3.0891265041 
3.1020761598 3.1020761598 3.1020761598 3.0891265041 3.0891265041 3.0891265041 3.0891265041 3.1020761598 3.1020761598 
3.1020761598 3.1020761598 3.0891265041 3.0891265041 3.0891265041 3.0891265041 3.0891265041 3.0891265041 3.1020761598 
3.1020761598 3.1020761598 3.0891265041 3.0891265041 3.0891265041 3.0891265041 3.1020761598 3.1020761598 3.1020761598 
3.1020761598 3.1020761598 3.0891265041 3.0891265041 3.0891265041 3.0891265041 3.0891265041 3.1020761598 3.1020761598 
3.1020761598 3.1020761598 3.0891265041 3.0891265041 3.0891265041 3.0891265041 3.0891265041 3.1020761598 3.1020761598 
3.1020761598 3.0891265041 3.0891265041 3.0891265041 3.0891265041 3.0891265041 3.1020761598 3.1020761598 3.0891265041 
3.0891265041 3.0891265041 3.0891265041 3.0891265041 3.1020761598 3.1020761598 3.1020761598 3.1020761598 3.0891265041 
3.0891265041 3.0891265041 3.0891265041 3.0891265041 3.1020761598 3.1020761598 3.0891265041 3.0891265041 3.0891265041 
3.0891265041 3.0891265041 3.1020761598 3.1020761598 3.0891265041 3.0891265041 3.0891265041 3.0891265041 3.1020761598 
3.1020761598 3.1020761598 3.0891265041 3.0891265041 3.0891265041 3.0891265041 3.0891265041 3.1020761598 3.1020761598 
3.0891265041 3.0891265041 3.0891265041 3.0891265041 3.0891265041 3.1020761598 3.1020761598 3.1020761598 3.0891265041 
3.0891265041 3.0891265041 3.0891265041 3.1020761598 3.1020761598 3.1020761598 3.0891265041 3.0891265041 3.0891265041 
3.0891265041 3.1020761598 3.1020761598 3.0891265041 3.0891265041 3.0891265041 3.0891265041 3.0891265041 3.0891265041 
3.1020761598 3.1020761598 3.0891265041 3.0891265041 3.0891265041 3.0891265041 3.1020761598 3.1020761598 3.0891265041 
3.0891265041 3.0891265041 3.0891265041 3.1020761598 3.1020761598 3.1020761598 3.0891265041 3.0891265041 3.0891265041 
3.0891265041 3.0891265041 3.0891265041 3.0891265041 3.1020761598 3.1020761598 3.1020761598 3.0891265041 3.0891265041 
3.0891265041 3.0891265041 3.0891265041 3.0891265041 3.0891265041 3.0891265041 3.1020761598 3.1020761598 3.0891265041 
3.0891265041 3.0891265041 3.0891265041 3.0891265041 3.0891265041 3.0891265041 3.0891265041 3.0891265041 3.1020761598 
3.1020761598 3.1020761598 3.0891265041 3.0891265041 3.0891265041 3.0891265041 3.0891265041 3.0891265041 3.0891265041 
3.0891265041 3.0891265041 3.0891265041 3.1020761598 3.1020761598 3.1020761598 3.0891265041 3.0891265041 3.0891265041 
3.0891265041 3.0891265041 3.0891265041 3.0891265041 3.0891265041 3.1020761598 3.1020761598 3.1020761598 3.1020761598 
3.0891265041 3.0891265041 3.0891265041 3.0891265041 3.0891265041 3.0891265041 3.0891265041 3.0891265041 3.1020761598 
3.1020761598 3.1020761598 3.0891265041 3.0891265041 3.0891265041 3.0891265041 3.0891265041 3.0891265041 3.0891265041 
3.0891265041 3.0891265041 3.0891265041 3.1020761598 3.1020761598 3.1020761598 3.0891265041 3.0891265041 3.0891265041 
3.0891265041 3.0891265041 3.0891265041 3.0891265041 3.0891265041 3.1020761598 3.1020761598 3.0891265041 3.0891265041 
3.0891265041 3.0891265041 3.0891265041 3.0891265041 3.0891265041 3.0891265041 3.0891265041 3.1020761598 3.1020761598 
3.0891265041 3.0891265041 3.0891265041 3.0891265041 3.0891265041 3.0891265041 3.0891265041 3.0891265041 3.0891265041 
3.1020761598 3.1020761598 3.1020761598 3.0891265041 3.0891265041 3.0891265041 3.0891265041 3.0891265041 3.0891265041 
3.0891265041 3.0891265041 3.0891265041 3.1020761598 3.1020761598 3.0891265041 3.0891265041 3.0891265041 3.0891265041 
3.0891265041 3.0891265041 3.0891265041 3.0891265041 3.1020761598 3.1020761598 3.0891265041 3.0891265041 3.0891265041 
3.0891265041 3.0891265041 3.0891265041 3.0891265041 3.0891265041 3.0891265041 3.0891265041 3.0891265041 3.1020761598 
3.1020761598 3.1020761598 3.0891265041 3.0891265041 3.0891265041 3.0891265041 3.0891265041 3.0891265041 3.0891265041 
3.0891265041 3.0891265041 3.0891265041 3.0891265041 3.1020761598 3.1150258155 3.1150258155 3.1150258155 3.1150258155 
3.1150258155 3.1150258155 3.1150258155 3.1020761598 3.0891265041 3.0891265041 3.0891265041 3.0891265041 3.0891265041 
3.0891265041 3.0891265041 3.0891265041 3.0891265041 3.0891265041 3.0891265041 3.1020761598 3.1150258155 3.1150258155 
3.1020761598 3.0891265041 3.0891265041 3.0891265041 3.0891265041 3.0891265041 3.0891265041 3.0891265041 3.0891265041 
3.0891265041 3.0891265041 3.1020761598 3.1020761598 3.1150258155 3.1150258155 3.1150258155 3.1020761598 3.0891265041 
3.0891265041 3.0891265041 3.0891265041 3.0891265041 3.0891265041 3.0891265041 3.0891265041 3.0891265041 3.0891265041 
3.0891265041 3.0891265041 3.0891265041 3.0891265041 3.0891265041 3.1020761598 3.1150258155 3.1150258155 3.1150258155 
3.1020761598 3.0891265041 3.0891265041 3.0891265041 3.0891265041 3.0891265041 3.0891265041 3.0891265041 3.0891265041 
3.0891265041 3.0891265041 3.0891265041 3.0891265041 3.0891265041 3.0891265041 3.1020761598 3.1150258155 3.1150258155 
3.1150258155 3.1150258155 3.1020761598 3.0891265041 3.0891265041 3.0891265041 3.0891265041 3.0891265041 3.0891265041 
3.0891265041 3.0891265041 3.0891265041 3.0891265041 3.0891265041 3.1020761598 3.1150258155 3.1150258155 3.1020761598 
3.1020761598 3.0891265041 3.0891265041 3.0891265041 3.0891265041 3.0891265041 3.0891265041 3.0891265041 3.0891265041 
3.0891265041 3.0891265041 3.0891265041 3.0891265041 3.1020761598 3.1150258155 3.1150258155 3.1150258155 3.1150258155 
3.1020761598 3.0891265041 3.0891265041 3.0891265041 3.0891265041 3.0891265041 3.0891265041 3.0891265041 3.0891265041 
3.0891265041 3.0891265041 3.1020761598 3.1150258155 3.1150258155 3.1020761598 3.0891265041 3.0891265041 3.0891265041 
3.0891265041 3.0891265041 3.0891265041 3.0891265041 3.0891265041 3.0891265041 3.1020761598 3.1150258155 3.1150258155 
3.1020761598 3.0891265041 3.0891265041 3.0891265041 3.0891265041 3.0891265041 3.0891265041 3.1020761598 3.1150258155 
3.1150258155 3.1150258155 3.1020761598 3.0891265041 3.0891265041 3.0891265041 3.0891265041 3.0891265041 3.0891265041 
3.0891265041 3.1020761598 3.1150258155 3.1150258155 3.1020761598 3.1020761598 3.0891265041 3.0891265041 3.0891265041 
3.0891265041 3.0891265041 3.0891265041 3.0891265041 3.1020761598 3.1150258155 3.1150258155 3.1150258155 3.1020761598 
3.0891265041 3.0891265041 3.0891265041 3.0891265041 3.0891265041 3.0891265041 3.0891265041 3.1020761598 3.1020761598 
3.1150258155 3.1150258155 3.1020761598 3.0891265041 3.0891265041 3.0891265041 3.0891265041 3.0891265041 3.0891265041 
3.0891265041 3.1020761598 3.1020761598 3.1150258155 3.1150258155 3.1150258155 3.1020761598 3.0891265041 3.0891265041 
3.0891265041 3.0891265041 3.0891265041 3.0891265041 3.0891265041 3.1020761598 3.1150258155 3.1150258155 3.1150258155 
3.1020761598 3.1020761598 3.0891265041 3.0891265041 3.0891265041 3.0891265041 3.0891265041 3.0891265041 3.0891265041 
3.0891265041 3.0891265041 3.1020761598 3.1150258155 3.1279754712 3.1279754712 3.1279754712 3.1279754712 3.1279754712 
3.1279754712 3.1150258155 3.1020761598 3.0891265041 3.0891265041 3.0891265041 3.0891265041 3.0891265041 3.0891265041 
3.0891265041 3.0891265041 3.0891265041 3.0891265041 3.1020761598 3.1150258155 3.1279754712 3.1279754712 3.1279754712 
3.1150258155 3.1020761598 3.0891265041 3.0891265041 3.0891265041 3.0891265041 3.0891265041 3.0891265041 3.0891265041 
3.0891265041 3.1020761598 3.1020761598 3.1150258155 3.1279754712 3.1279754712 3.1279754712 3.1150258155 3.1020761598 
3.0891265041 3.0891265041 3.0891265041 3.0891265041 3.0891265041 3.0891265041 3.1020761598 3.1150258155 3.1279754712 
3.1279754712 3.1279754712 3.1150258155 3.1020761598 3.0891265041 3.0891265041 3.0891265041 3.0891265041 3.0891265041 
3.0891265041 3.1020761598 3.1150258155 3.1279754712 3.1279754712 3.1279754712 3.1150258155 3.1020761598 3.0891265041 
3.0891265041 3.0891265041 3.0891265041 3.0891265041 3.0891265041 3.0761768483 3.0761768483 3.0761768483 3.0761768483 
3.0761768483 3.0891265041 3.1020761598 3.1150258155 3.1150258155 3.1279754712 3.1279754712 3.1279754712 3.1150258155 
3.1150258155 3.1020761598 3.0891265041 3.0891265041 3.0891265041 3.0891265041 3.0891265041 3.0891265041 3.0761768483 
3.0761768483 3.0761768483 3.0761768483 3.0761768483 3.0761768483 3.0891265041 3.1020761598 3.1150258155 3.1279754712 
3.1279754712 3.1150258155 3.1020761598 3.1020761598 3.0891265041 3.0891265041 3.0891265041 3.0891265041 3.0891265041 
3.0761768483 3.0761768483 3.0761768483 3.0761768483 3.0891265041 3.1020761598 3.1150258155 3.1279754712 3.1279754712 
3.1279754712 3.1150258155 3.1020761598 3.0891265041 3.0891265041 3.0891265041 3.0891265041 3.0891265041 3.0891265041 
3.0761768483 3.0761768483 3.0761768483 3.0891265041 3.1020761598 3.1150258155 3.1279754712 3.1279754712 3.1150258155 
3.1150258155 3.1150258155 3.1150258155 3.1150258155 3.1020761598 3.0891265041 3.0891265041 3.0891265041 3.0891265041 
3.0891265041 3.0761768483 3.0761768483 3.0761768483 3.0891265041 3.1020761598 3.1150258155 3.1279754712 3.1279754712 
3.1150258155 3.1150258155 3.1150258155 3.1020761598 3.0891265041 3.0891265041 3.0891265041 3.0891265041 3.0891265041 
3.0761768483 3.0761768483 3.0761768483 3.0761768483 3.0891265041 3.1020761598 3.1150258155 3.1279754712 3.1279754712 
3.140925127 3.140925127 3.140925127 3.140925127 3.1279754712 3.1150258155 3.1150258155 3.1020761598 3.0891265041 
3.0891265041 3.0891265041 3.0891265041 3.0891265041 3.0891265041 3.0891265041 3.0891265041 3.0761768483 3.0761768483 
3.0891265041 3.1020761598 3.1150258155 3.1150258155 3.1279754712 3.140925127 3.140925127 3.140925127 3.140925127 
3.1279754712 3.1150258155 3.1150258155 3.1020761598 3.0891265041 3.0891265041 3.0891265041 3.0891265041 3.0891265041 
3.0891265041 3.0891265041 3.0891265041 3.0761768483 3.0761768483 3.0761768483 3.0761768483 3.0891265041 3.0891265041 
3.1020761598 3.1150258155 3.1279754712 3.140925127 3.140925127 3.140925127 3.1279754712 3.1150258155 3.1020761598 
3.0891265041 3.0891265041 3.0891265041 3.0891265041 3.0891265041 3.0761768483 3.0761768483 3.0891265041 3.1020761598 
3.1150258155 3.1279754712 3.140925127 3.140925127 3.140925127 3.1279754712 3.1150258155 3.1150258155 3.1020761598 
3.0891265041 3.0891265041 3.0891265041 3.0891265041 3.0891265041 3.0891265041 3.0761768483 3.0761768483 3.0761768483 
3.0761768483 3.0891265041 3.1020761598 3.1150258155 3.1279754712 3.1279754712 3.140925127 3.140925127 3.140925127 
3.1279754712 3.1279754712 3.1150258155 3.1020761598 3.1020761598 3.0891265041 3.0891265041 3.0891265041 3.0891265041 
3.0761768483 3.0761768483 3.0761768483 3.0891265041 3.1020761598 3.1150258155 3.1279754712 3.140925127 3.140925127 
3.140925127 3.1279754712 3.1150258155 3.1150258155 3.1020761598 3.0891265041 3.0891265041 3.0891265041 3.0761768483 
3.0761768483 3.0891265041 3.1020761598 3.1150258155 3.1279754712 3.140925127 3.140925127 3.1279754712 3.1150258155 
3.1020761598 3.0891265041 3.0891265041 3.0761768483 3.0761768483 3.0761768483 3.0891265041 3.1020761598 3.1150258155 
3.1279754712 3.140925127 3.140925127 3.140925127 3.1279754712 3.1150258155 3.1020761598 3.0891265041 3.0891265041 
3.0761768483 3.0761768483 3.0891265041 3.1020761598 3.1150258155 3.1279754712 3.1279754712 3.140925127 3.1538747827 
3.1538747827 3.1538747827 3.1538747827 3.1538747827 3.140925127 3.1279754712 3.1150258155 3.1020761598 3.0891265041 
3.0891265041 3.0761768483 3.0761768483 3.0891265041 3.1020761598 3.1150258155 3.1150258155 3.1279754712 3.140925127 
3.1538747827 3.1538747827 3.1538747827 3.140925127 3.1279754712 3.1150258155 3.1150258155 3.1020761598 3.0891265041 
3.0891265041 3.0761768483 3.0761768483 3.0891265041 3.1020761598 3.1150258155 3.1279754712 3.140925127 3.140925127 
3.1538747827 3.1538747827 3.1538747827 3.1538747827 3.140925127 3.1279754712 3.1150258155 3.1020761598 3.0891265041 
3.0761768483 3.0761768483 3.0761768483 3.0761768483 3.0761768483 3.0891265041 3.0891265041 3.0761768483 3.0632271926 
3.0632271926 3.0632271926 3.0632271926 3.0632271926 3.0761768483 3.0761768483 3.0891265041 3.1020761598 3.1150258155 
3.1279754712 3.140925127 3.1538747827 3.1538747827 3.140925127 3.140925127 3.1279754712 3.1150258155 3.1020761598 
3.0891265041 3.0761768483 3.0761768483 3.0761768483 3.0891265041 3.0761768483 3.0632271926 3.0632271926 3.0632271926 
3.0632271926 3.0632271926 3.0761768483 3.0891265041 3.1020761598 3.1150258155 3.1279754712 3.140925127 3.1538747827 
3.1538747827 3.1538747827 3.140925127 3.1279754712 3.1150258155 3.1020761598 3.0891265041 3.0891265041 3.0761768483 
3.0761768483 3.0761768483 3.0891265041 3.0761768483 3.0632271926 3.0632271926 3.0632271926 3.0632271926 3.0761768483 
3.0891265041 3.1020761598 3.1150258155 3.1279754712 3.1279754712 3.140925127 3.140925127 3.1538747827 3.1538747827 
3.140925127 3.1279754712 3.1150258155 3.1020761598 3.0891265041 3.0761768483 3.0761768483 3.0761768483 3.0891265041 
3.0761768483 3.0632271926 3.0632271926 3.0761768483 3.0891265041 3.1020761598 3.1150258155 3.1279754712 3.140925127 
3.1538747827 3.1538747827 3.1538747827 3.140925127 3.1279754712 3.1150258155 3.1020761598 3.0891265041 3.0761768483 
3.0761768483 3.0761768483 3.0761768483 3.0761768483 3.0761768483 3.0891265041 3.0761768483 3.0632271926 3.0632271926 
3.0632271926 3.0761768483 3.0891265041 3.1020761598 3.1020761598 3.1150258155 3.1279754712 3.140925127 3.140925127 
3.1538747827 3.1538747827 3.1538747827 3.140925127 3.1279754712 3.1279754712 3.1150258155 3.1020761598 3.0891265041 
3.0761768483 3.0761768483 3.0761768483 3.0761768483 3.0761768483 3.0761768483 3.0761768483 3.0761768483 3.0761768483 
3.0891265041 3.0761768483 3.0761768483 3.0632271926 3.0632271926 3.0632271926 3.0761768483 3.0891265041 3.1020761598 
3.1150258155 3.1279754712 3.140925127 3.1538747827 3.1538747827 3.1668244384 3.1668244384 3.1668244384 3.1668244384 
3.1538747827 3.140925127 3.1279754712 3.1150258155 3.1020761598 3.0891265041 3.0761768483 3.0761768483 3.0761768483 
3.0761768483 3.0761768483 3.0761768483 3.0761768483 3.0761768483 3.0761768483 3.0761768483 3.0761768483 3.0761768483 
3.0761768483 3.0891265041 3.0891265041 3.0761768483 3.0632271926 3.0632271926 3.0761768483 3.0891265041 3.1020761598 
3.1150258155 3.1150258155 3.1279754712 3.1279754712 3.140925127 3.1538747827 3.1668244384 3.1668244384 3.1668244384 
3.1538747827 3.140925127 3.1279754712 3.1150258155 3.1150258155 3.1020761598 3.1020761598 3.0891265041 3.0761768483 
3.0761768483 3.0761768483 3.0761768483 3.0761768483 3.0761768483 3.0761768483 3.0761768483 3.0761768483 3.0761768483 
3.0761768483 3.0761768483 3.0761768483 3.0761768483 3.0761768483 3.0761768483 3.0891265041 3.0761768483 3.0632271926 