# vtk DataFile Version 4.2
vtk output
ASCII
DATASET POLYDATA
POINTS 9127 float
-1665.29 -4223.78 0 -1679.02 -4216.29 0 -1628.29 -4218.97 0 
-1607.67 -4216.29 0 -1701.56 -4199.29 0 -1591.29 -4214.16 0 
-1554.29 -4209.35 0 -1517.29 -4204.54 0 -1480.29 -4199.74 0 
-1476.84 -4199.29 0 -1702.29 -4198.6 0 -1718.53 -4182.29 0 
-1443.29 -4194.93 0 -1406.28 -4190.12 0 -1369.28 -4185.31 0 
-1346 -4182.28 0 -1735.46 -4165.29 0 -1332.28 -4180.5 0 
-1295.28 -4175.69 0 -1258.28 -4170.88 0 -1221.28 -4166.07 0 
-1215.16 -4165.28 0 -1739.29 -4161.44 0 -1752.39 -4148.29 0 
-1184.28 -4161.26 0 -1147.28 -4156.45 0 -1110.27 -4151.65 0 
-1084.33 -4148.27 0 -1769.31 -4131.29 0 -1073.27 -4146.84 0 
-1036.27 -4142.03 0 -999.27 -4137.22 0 -962.269 -4132.41 0 
-953.495 -4131.27 0 -629.26 -4135.43 0 -642.225 -4131.26 0 
-592.26 -4147.34 0 -555.259 -4142.06 0 -550.47 -4131.26 0 
-1776.29 -4124.28 0 -1786.24 -4114.29 0 -925.268 -4127.6 0 
-888.267 -4122.79 0 -851.265 -4117.98 0 -822.661 -4114.26 0 
-666.261 -4123.52 0 -695.043 -4114.26 0 -542.936 -4114.26 0 
-1803.17 -4097.29 0 -814.264 -4113.17 0 -777.263 -4108.36 0 
-740.261 -4104.91 0 -703.261 -4111.62 0 -535.401 -4097.26 0 
-1813.29 -4087.13 0 -1820.1 -4080.29 0 -527.866 -4080.25 0 
-1837.02 -4063.29 0 -520.332 -4063.25 0 -1850.29 -4049.97 0 
-1853.95 -4046.29 0 -518.253 -4058.56 0 -512.797 -4046.25 0 
-1870.88 -4029.29 0 -505.262 -4029.25 0 -1887.29 -4012.81 0 
-1887.81 -4012.29 0 -491.93 -4012.25 0 -1904.73 -3995.29 0 
-481.249 -4005.23 0 -466.051 -3995.25 0 -1921.66 -3978.29 0 
-444.246 -3980.92 0 -440.172 -3978.25 0 -1924.29 -3975.65 0 
-1938.59 -3961.29 0 -414.293 -3961.24 0 -1955.52 -3944.28 0 
-407.244 -3956.61 0 -388.414 -3944.24 0 -1961.28 -3938.49 0 
-1972.45 -3927.28 0 -370.241 -3932.3 0 -362.535 -3927.24 0 
-1989.37 -3910.28 0 -336.656 -3910.24 0 -1998.28 -3901.34 0 
-2006.3 -3893.28 0 -333.239 -3907.99 0 -310.777 -3893.24 0 
-2023.23 -3876.28 0 -296.236 -3883.68 0 -284.898 -3876.24 0 
-2035.28 -3864.18 0 -2040.16 -3859.28 0 -259.234 -3859.38 0 
-259.019 -3859.23 0 -2057.08 -3842.28 0 -233.14 -3842.23 0 
-2072.28 -3827.02 0 -2074.01 -3825.28 0 -222.232 -3835.07 0 
-207.261 -3825.23 0 -2090.94 -3808.28 0 -185.229 -3810.76 0 
-181.382 -3808.23 0 -2107.87 -3791.28 0 -155.503 -3791.23 0 
-2109.28 -3789.86 0 -2124.8 -3774.28 0 -148.227 -3786.45 0 
-129.624 -3774.23 0 -2141.72 -3757.28 0 -111.224 -3762.14 0 
-103.745 -3757.22 0 -2146.28 -3752.7 0 -2158.65 -3740.28 0 
-77.8658 -3740.22 0 -2175.58 -3723.28 0 -74.2219 -3737.83 0 
-51.9869 -3723.22 0 -2183.28 -3715.55 0 -2192.51 -3706.28 0 
-37.2194 -3713.52 0 -26.108 -3706.22 0 -2209.43 -3689.28 0 
-0.229061 -3689.22 0 -2220.28 -3678.39 0 -2226.36 -3672.28 0 
-0.217 -3689.21 0 25.6499 -3672.22 0 -2243.29 -3655.28 0 
36.7854 -3664.9 0 51.5289 -3655.21 0 -2257.28 -3641.23 0 
-2260.22 -3638.27 0 73.7879 -3640.59 0 77.4081 -3638.21 0 
-2277.15 -3621.27 0 103.287 -3621.21 0 -2294.07 -3604.27 0 
110.79 -3616.28 0 129.166 -3604.21 0 -2294.27 -3604.07 0 
-2311 -3587.27 0 147.793 -3591.97 0 155.045 -3587.21 0 
-2327.93 -3570.27 0 180.924 -3570.21 0 -2331.27 -3566.91 0 
-2344.86 -3553.27 0 184.795 -3567.66 0 206.803 -3553.2 0 
-2361.78 -3536.27 0 221.798 -3543.35 0 232.682 -3536.2 0 
-2368.27 -3529.76 0 -2378.71 -3519.27 0 258.561 -3519.2 0 
-2395.64 -3502.27 0 258.8 -3519.04 0 268.605 -3502.2 0 
-2405.27 -3492.43 0 -2411.91 -3485.27 0 274.328 -3485.2 0 
-2425.05 -3468.27 0 278.05 -3468.2 0 -2438.2 -3451.27 0 
280.664 -3451.2 0 -2442.27 -3446 0 -2451.34 -3434.27 0 
282.601 -3434.19 0 -2464.48 -3417.27 0 284.095 -3417.19 0 
-2477.63 -3400.27 0 283.944 -3400.19 0 -2479.27 -3398.15 0 
-2490.77 -3383.27 0 283.922 -3383.19 0 -2503.92 -3366.27 0 
283.901 -3366.19 0 -2516.26 -3350.3 0 -2517.06 -3349.26 0 
283.879 -3349.19 0 -2530.21 -3332.26 0 283.858 -3332.19 0 
-2543.35 -3315.26 0 283.836 -3315.19 0 -2553.26 -3302.44 0 
-2556.5 -3298.26 0 283.815 -3298.19 0 -2569.64 -3281.26 0 
283.793 -3281.19 0 -2582.78 -3264.26 0 283.772 -3264.18 0 
-2590.26 -3254.59 0 -2595.93 -3247.26 0 283.75 -3247.18 0 
-2609.07 -3230.26 0 283.729 -3230.18 0 -2621.12 -3213.26 0 
283.707 -3213.18 0 -2627.26 -3203.46 0 -2631.16 -3196.26 0 
283.686 -3196.18 0 -2640.36 -3179.26 0 283.664 -3179.18 0 
-2649.57 -3162.26 0 283.643 -3162.18 0 -2658.78 -3145.26 0 
283.621 -3145.18 0 -2664.26 -3135.14 0 -2667.99 -3128.26 0 
283.6 -3128.18 0 -2677.19 -3111.26 0 283.578 -3111.18 0 
3440.91 -3125.74 0 3429.53 -3111.09 0 3477.91 -3119.31 0 
3487.31 -3111.09 0 -2686.4 -3094.25 0 283.557 -3094.17 0 
3416.33 -3094.09 0 3506.75 -3094.09 0 -2695.61 -3077.25 0 
283.535 -3077.17 0 3403.91 -3078.09 0 3403.13 -3077.09 0 
3514.91 -3086.95 0 3526.19 -3077.09 0 -2701.25 -3066.83 0 
-2704.81 -3060.25 0 283.514 -3060.17 0 3389.93 -3060.09 0 
3545.62 -3060.08 0 -2714.02 -3043.25 0 283.454 -3043.17 0 
3376.73 -3043.09 0 3551.92 -3054.58 0 3565.06 -3043.08 0 
-2723.23 -3026.25 0 283.353 -3026.17 0 3366.91 -3030.44 0 
3363.53 -3026.09 0 3584.5 -3026.08 0 -2732.43 -3009.25 0 
283.253 -3009.17 0 3350.33 -3009.09 0 3588.92 -3022.21 0 
3603.93 -3009.08 0 -2738.25 -2998.51 0 -2741.64 -2992.25 0 
283.152 -2992.17 0 3337.13 -2992.09 0 3623.37 -2992.08 0 
-2750.85 -2975.25 0 283.052 -2975.17 0 3329.91 -2982.79 0 
3323.93 -2975.09 0 3625.92 -2989.85 0 3642.81 -2975.08 0 
-2760.06 -2958.25 0 282.951 -2958.17 0 3310.73 -2958.08 0 
3662.25 -2958.07 0 -2769.26 -2941.25 0 282.851 -2941.17 0 
3297.53 -2941.08 0 3662.93 -2957.48 0 3681.68 -2941.07 0 
-2775.25 -2930.2 0 -2778.47 -2924.25 0 282.75 -2924.16 0 
3292.92 -2935.14 0 3284.33 -2924.08 0 3699.93 -2925.11 0 
3701.12 -2924.07 0 -2787.68 -2907.25 0 282.65 -2907.16 0 
3271.13 -2907.08 0 3720.56 -2907.07 0 -2796.88 -2890.25 0 
282.549 -2890.16 0 3257.93 -2890.08 0 3736.93 -2892.75 0 
3739.99 -2890.07 0 -2806.09 -2873.24 0 282.449 -2873.16 0 
3255.92 -2887.49 0 3244.73 -2873.08 0 3759.43 -2873.07 0 
-2812.24 -2861.88 0 -2815.3 -2856.24 0 282.349 -2856.16 0 
3231.53 -2856.08 0 3773.93 -2860.38 0 3778.87 -2856.07 0 
-2824.5 -2839.24 0 282.177 -2839.16 0 3218.92 -2839.84 0 
3218.33 -2839.08 0 3798.31 -2839.06 0 -2833.71 -2822.24 0 
282.97 -2822.16 0 3205.13 -2822.08 0 3810.94 -2828.02 0 
3817.74 -2822.06 0 -2842.92 -2805.24 0 283.666 -2805.16 0 
3191.93 -2805.08 0 3837.18 -2805.06 0 -2849.24 -2793.57 0 
-2852.13 -2788.24 0 284.282 -2788.16 0 3181.92 -2792.19 0 
3178.73 -2788.08 0 3847.94 -2795.65 0 3856.62 -2788.06 0 
-2861.33 -2771.24 0 284.832 -2771.16 0 3165.53 -2771.08 0 
3876.06 -2771.06 0 -2870.54 -2754.24 0 285.325 -2754.15 0 
3152.33 -2754.08 0 3884.94 -2763.28 0 3895.49 -2754.06 0 
-2879.75 -2737.24 0 287.017 -2737.15 0 3144.92 -2744.54 0 
3139.03 -2737.08 0 3914.93 -2737.06 0 -2886.24 -2725.25 0 
-2888.95 -2720.24 0 288.84 -2720.15 0 3132.72 -2720.08 0 
3921.95 -2730.92 0 3934.37 -2720.05 0 -2898.16 -2703.24 0 
290.664 -2703.15 0 3134.36 -2703.07 0 3953.89 -2703.05 0 
-2907.37 -2686.24 0 292.487 -2686.15 0 3138.99 -2686.07 0 
3958.95 -2699.52 0 3979.02 -2686.05 0 -2916.58 -2669.24 0 
294.31 -2669.15 0 3143.63 -2669.07 0 3995.95 -2674.69 0 
4004.36 -2669.05 0 -2923.24 -2656.94 0 -2925.78 -2652.24 0 
295.852 -2654.77 0 296.134 -2652.15 0 3144.93 -2664.32 0 
3148.27 -2652.07 0 4029.7 -2652.05 0 -2934.99 -2635.23 0 
297.957 -2635.15 0 3152.91 -2635.07 0 4032.95 -2649.87 0 
4055.04 -2635.05 0 -2944.2 -2618.23 0 299.78 -2618.15 0 
3157.55 -2618.07 0 4069.96 -2625.04 0 4080.39 -2618.04 0 
-2953.4 -2601.23 0 301.603 -2601.14 0 3162.18 -2601.07 0 
4105.73 -2601.04 0 -2960.23 -2588.62 0 -2962.61 -2584.23 0 
303.427 -2584.14 0 3166.82 -2584.07 0 4106.96 -2600.22 0 
4131.07 -2584.04 0 -2971.82 -2567.23 0 305.25 -2567.14 0 
3171.46 -2567.07 0 4143.96 -2575.39 0 4156.41 -2567.04 0 
-2981.02 -2550.23 0 307.073 -2550.14 0 3176.1 -2550.06 0 
4180.96 -2550.56 0 4181.75 -2550.04 0 -2990.23 -2533.23 0 
308.897 -2533.14 0 3180.74 -2533.06 0 4204.94 -2533.04 0 
-2997.23 -2520.31 0 -2999.44 -2516.23 0 310.72 -2516.14 0 
3180.19 -2516.06 0 4217.97 -2521.34 0 4222.25 -2516.03 0 
-3008.65 -2499.23 0 312.543 -2499.14 0 3176.35 -2499.06 0 
4235.96 -2499.03 0 -3017.85 -2482.23 0 314.367 -2482.14 0 
3172.25 -2482.06 0 4249.67 -2482.03 0 -3027.06 -2465.23 0 
316.19 -2465.14 0 3168.15 -2465.06 0 4254.97 -2475.45 0 
4263.38 -2465.03 0 -3034.23 -2451.99 0 -3036.27 -2448.23 0 
318.013 -2448.14 0 3164.05 -2448.06 0 4277.08 -2448.03 0 
-3045.47 -2431.23 0 319.836 -2431.13 0 3159.94 -2431.06 0 
4290.79 -2431.03 0 -3054.68 -2414.22 0 321.66 -2414.13 0 
3155.84 -2414.06 0 4291.97 -2429.57 0 4304.51 -2414.03 0 
-3063.89 -2397.22 0 323.483 -2397.13 0 3151.74 -2397.06 0 
4318.22 -2397.02 0 -3071.22 -2383.68 0 -3073.09 -2380.22 0 
325.306 -2380.13 0 3147.64 -2380.05 0 4328.98 -2383.68 0 
4331.93 -2380.02 0 -3082.3 -2363.22 0 327.13 -2363.13 0 
3144.95 -2368.89 0 3143.54 -2363.05 0 4345.63 -2363.02 0 
-3091.51 -2346.22 0 328.953 -2346.13 0 3139.44 -2346.05 0 
4359.34 -2346.02 0 -3100.72 -2329.22 0 330.776 -2329.13 0 
3135.33 -2329.05 0 4365.98 -2337.79 0 4373.05 -2329.02 0 
-3108.22 -2315.36 0 -3109.92 -2312.22 0 332.6 -2312.13 0 
3131.23 -2312.05 0 4386.76 -2312.02 0 -3119.13 -2295.22 0 
332.873 -2309.58 0 334.423 -2295.13 0 3127.13 -2295.05 0 
4400.47 -2295.02 0 -3128.34 -2278.22 0 336.246 -2278.13 0 
3123.03 -2278.05 0 4402.98 -2291.9 0 4414.19 -2278.01 0 
-3137.54 -2261.22 0 338.069 -2261.12 0 3118.93 -2261.05 0 
4427.9 -2261.01 0 -3145.22 -2247.05 0 -3146.75 -2244.22 0 
341.673 -2244.12 0 3114.83 -2244.05 0 4439.99 -2246.02 0 
4441.6 -2244.01 0 -3155.96 -2227.22 0 346.813 -2227.12 0 
3110.73 -2227.05 0 4455.31 -2227.01 0 -3164.73 -2210.22 0 
351.954 -2210.12 0 3107.95 -2215.56 0 3106.62 -2210.05 0 
4469.02 -2210.01 0 -3172.99 -2193.21 0 357.095 -2193.12 0 
3102.52 -2193.05 0 4476.99 -2200.13 0 4482.73 -2193.01 0 
-3181.25 -2176.21 0 362.236 -2176.12 0 3098.42 -2176.04 0 
4496.44 -2176.01 0 -3182.21 -2174.22 0 -3189.5 -2159.21 0 
367.377 -2159.12 0 3094.32 -2159.04 0 4510.15 -2159.01 0 
-3197.76 -2142.21 0 369.883 -2150.83 0 372.518 -2142.12 0 
3090.22 -2142.04 0 4514 -2154.24 0 4523.86 -2142 0 
[...]
POINT_DATA 9127
SCALARS Pressure double
LOOKUP_TABLE default
3.0891265041 3.0891265041 3.0891265041 3.0891265041 3.0891265041 3.0891265041 3.0891265041 3.0891265041 3.0891265041 
3.0891265041 3.0891265041 3.0891265041 3.0891265041 3.0891265041 3.0891265041 3.0891265041 3.0891265041 3.0891265041 
3.0891265041 3.0891265041 3.0891265041 3.0891265041 3.0891265041 3.0891265041 3.0891265041 3.0891265041 3.0891265041 
3.0891265041 3.0891265041 3.0891265041 3.0891265041 3.0891265041 3.0891265041 3.0891265041 3.0891265041 3.0891265041 
3.0891265041 3.0891265041 3.0891265041 3.0891265041 3.0891265041 3.0891265041 3.0891265041 3.0891265041 3.0891265041 
3.0891265041 3.0891265041 3.0891265041 3.0891265041 3.0891265041 3.0891265041 3.0891265041 3.0891265041 3.0891265041 
3.0891265041 3.0891265041 3.0891265041 3.0891265041 3.0891265041 3.0891265041 3.0891265041 3.0891265041 3.0891265041 
3.0891265041 3.0891265041 3.0891265041 3.0891265041 3.0891265041 3.0891265041 3.0891265041 3.0891265041 3.0891265041 
3.0891265041 3.0891265041 3.0891265041 3.0891265041 3.0891265041 3.0891265041 3.0891265041 3.0891265041 3.0891265041 
3.0891265041 3.0891265041 3.0891265041 3.0891265041 3.0891265041 3.0891265041 3.0891265041 3.0891265041 3.0891265041 
3.0891265041 3.0891265041 3.0891265041 3.0891265041 3.0891265041 3.0891265041 3.0891265041 3.0891265041 3.0891265041 
3.0891265041 3.0891265041 3.0891265041 3.0891265041 3.0891265041 3.0891265041 3.0891265041 3.0891265041 3.0891265041 
3.0891265041 3.0891265041 3.0891265041 3.0891265041 3.0891265041 3.0891265041 3.0891265041 3.0891265041 3.0891265041 
3.0891265041 3.0891265041 3.0891265041 3.0891265041 3.0891265041 3.0891265041 3.0891265041 3.0891265041 3.0891265041 
3.0891265041 3.0891265041 3.0891265041 3.0891265041 3.0891265041 3.0891265041 3.0891265041 3.0891265041 3.0891265041 
3.0891265041 3.0891265041 3.0891265041 3.0891265041 3.0891265041 3.0891265041 3.0891265041 3.0891265041 3.0891265041 
3.0891265041 3.0891265041 3.0891265041 3.0891265041 3.0891265041 3.0891265041 3.0891265041 3.0891265041 3.0891265041 
3.0891265041 3.0891265041 3.0891265041 3.0891265041 3.0891265041 3.0891265041 3.0891265041 3.0891265041 3.0891265041 
3.0891265041 3.0891265041 3.0891265041 3.0891265041 3.0891265041 3.0891265041 3.0891265041 3.0891265041 3.0891265041 
3.0891265041 3.0891265041 3.0891265041 3.0891265041 3.0891265041 3.0891265041 3.0891265041 3.0891265041 3.0891265041 
3.0891265041 3.0891265041 3.0891265041 3.0891265041 3.0891265041 3.0891265041 3.0891265041 3.0891265041 3.0891265041 
3.0891265041 3.0891265041 3.0891265041 3.0891265041 3.0891265041 3.0891265041 3.0891265041 3.0891265041 3.0891265041 
3.0891265041 3.0891265041 3.0891265041 3.0891265041 3.0891265041 3.0891265041 3.0891265041 3.0891265041 3.0891265041 
3.0891265041 3.0891265041 3.0891265041 3.0891265041 3.0891265041 3.0891265041 3.0891265041 3.0891265041 3.0891265041 
3.0891265041 3.0891265041 3.0891265041 3.0891265041 3.0891265041 3.0891265041 3.0891265041 3.0891265041 3.0891265041 
3.0891265041 3.0891265041 3.0891265041 3.0891265041 3.0891265041 3.0891265041 3.0891265041 3.0891265041 3.0891265041 
3.0891265041 3.0891265041 3.0891265041 3.0891265041 3.0891265041 3.0891265041 3.0891265041 3.0891265041 3.0891265041 
3.0891265041 3.0891265041 3.0891265041 3.0891265041 3.0891265041 3.0891265041 3.0891265041 3.0891265041 3.0891265041 
3.0891265041 3.0891265041 3.0891265041 3.0891265041 3.0891265041 3.0891265041 3.0891265041 3.0891265041 3.0891265041 
3.0891265041 3.0891265041 3.0891265041 3.0891265041 3.0891265041 3.0891265041 3.0891265041 3.0891265041 3.0891265041 
3.0891265041 3.0891265041 3.0891265041 3.0891265041 3.0891265041 3.0891265041 3.0891265041 3.0891265041 3.0891265041 
3.0891265041 3.0891265041 3.0891265041 3.0891265041 3.0891265041 3.0891265041 3.0891265041 3.0891265041 3.0891265041 
3.0891265041 3.0891265041 3.0891265041 3.0891265041 3.0891265041 3.0891265041 3.0891265041 3.0891265041 3.0891265041 
3.0891265041 3.0891265041 3.0891265041 3.0891265041 3.0891265041 3.0891265041 3.0891265041 3.0891265041 3.0891265041 
3.0891265041 3.0891265041 3.0891265041 3.0891265041 3.0891265041 3.0891265041 3.0891265041 3.0891265041 3.0891265041 
3.0891265041 3.0891265041 3.0891265041 3.0891265041 3.0891265041 3.0891265041 3.0891265041 3.0891265041 3.0891265041 
3.0891265041 3.0891265041 3.0891265041 3.0891265041 3.0891265041 3.0891265041 3.0891265041 3.0891265041 3.0891265041 
3.0891265041 3.0891265041 3.0891265041 3.0891265041 3.0891265041 3.0891265041 3.0891265041 3.0891265041 3.0891265041 
3.0891265041 3.0891265041 3.0891265041 3.0891265041 3.0891265041 3.0891265041 3.0891265041 3.0891265041 3.0891265041 
3.0891265041 3.0891265041 3.0891265041 3.0891265041 3.0891265041 3.0891265041 3.0891265041 3.0891265041 3.0891265041 
3.0891265041 3.0891265041 3.0891265041 3.0891265041 3.0891265041 3.0891265041 3.0891265041 3.0891265041 3.0891265041 
3.0891265041 3.0891265041 3.0891265041 3.0891265041 3.0891265041 3.0891265041 3.0891265041 3.0891265041 3.0891265041 
3.0891265041 3.0891265041 3.0891265041 3.0891265041 3.0891265041 3.0891265041 3.0891265041 3.0891265041 3.0891265041 
3.0891265041 3.0891265041 3.0891265041 3.0891265041 3.0891265041 3.0891265041 3.0891265041 3.0891265041 3.0891265041 
3.0891265041 3.0891265041 3.0891265041 3.0891265041 3.0891265041 3.0891265041 3.0891265041 3.0891265041 3.0891265041 
3.0891265041 3.0891265041 3.0891265041 3.0891265041 3.0891265041 3.0891265041 3.0891265041 3.0891265041 3.0891265041 
3.0891265041 3.0891265041 3.0891265041 3.0891265041 3.0891265041 3.0891265041 3.0891265041 3.0891265041 3.0891265041 
3.0891265041 3.0891265041 3.0891265041 3.0891265041 3.0891265041 3.0891265041 3.0891265041 3.0891265041 3.0891265041 
3.0891265041 3.0891265041 3.0891265041 3.0891265041 3.0891265041 3.0891265041 3.0891265041 3.0891265041 3.0891265041 
3.0891265041 3.0891265041 3.0891265041 3.0891265041 3.0891265041 3.0891265041 3.0891265041 3.0891265041 3.0891265041 
3.0891265041 3.0891265041 3.0891265041 3.0891265041 3.0891265041 3.0891265041 3.0891265041 3.0891265041 3.0891265041 
3.0891265041 3.0891265041 3.0891265041 3.0891265041 3.0891265041 3.0891265041 3.0891265041 3.0891265041 3.0891265041 
3.0891265041 3.0891265041 3.0891265041 3.0891265041 3.0891265041 3.0891265041 3.0891265041 3.0891265041 3.0891265041 
3.0891265041 3.0891265041 3.0891265041 3.0891265041 3.0891265041 3.0891265041 3.0891265041 3.0891265041 3.0891265041 
3.0891265041 3.0891265041 3.0891265041 3.0891265041 3.0891265041 3.0891265041 3.0891265041 3.0891265041 3.0891265041 
3.0891265041 3.0891265041 3.0891265041 3.0891265041 3.0891265041 3.0891265041 3.0891265041 3.0891265041 3.0891265041 
3.0891265041 3.0891265041 3.0891265041 3.0891265041 3.0891265041 3.0891265041 3.0891265041 3.0891265041 3.0891265041 
3.0891265041 3.0891265041 3.0891265041 3.1020761598 3.1020761598 3.1020761598 3.1020761598 3.1020761598 3.0891265041 
3.0891265041 3.0891265041 3.0891265041 3.1020761598 3.1020761598 3.1020761598 3.1020761598 3.1020761598 3.1020761598 
3.0891265041 3.0891265041 3.0891265041 3.0891265041 3.1020761598 3.1020761598 3.1020761598 3.1020761598 3.0891265041 
3.0891265041 3.0891265041 3.0891265041 3.0891265041 3.0891265041 3.1020761598 3.1020761598 3.1020761598 3.1020761598 
3.1020761598 3.1020761598 3.0891265041 3.0891265041 3.0891265041 3.0891265041 3.0891265041 3.1020761598 3.1020761598 
3.1020761598 3.1020761598 3.1020761598 3.0891265041 3.0891265041 3.0891265041 3.0891265041 3.0891265041 3.1020761598 
3.1020761598 3.1020761598 3.0891265041 3.0891265041 3.0891265041 3.0891265041 3.0891265041 3.1020761598 3.1020761598 
3.1020761598 3.1020761598 3.0891265041 3.0891265041 3.0891265041 3.0891265041 3.1020761598 3.1020761598 3.1020761598 
3.0891265041 3.0891265041 3.0891265041 3.0891265041 3.0891265041 3.1020761598 3.1020761598 3.0891265041 3.0891265041 
3.0891265041 3.0891265041 3.1020761598 3.1020761598 3.1020761598 3.0891265041 3.0891265041 3.0891265041 3.0891265041 
3.0891265041 3.0891265041 3.1020761598 3.1020761598 3.1020761598 3.0891265041 3.0891265041 3.0891265041 3.0891265041 
3.1020761598 3.1020761598 3.1020761598 3.0891265041 3.0891265041 3.0891265041 3.0891265041 3.0891265041 3.0891265041 
3.1020761598 3.1020761598 3.1020761598 3.0891265041 3.0891265041 3.0891265041 3.0891265041 3.1020761598 3.1020761598 
3.0891265041 3.0891265041 3.0891265041 3.0891265041 3.0891265041 3.1020761598 3.1020761598 3.0891265041 3.0891265041 
3.0891265041 3.0891265041 3.0891265041 3.1020761598 3.1020761598 3.1020761598 3.1020761598 3.0891265041 3.0891265041 
3.0891265041 3.0891265041 3.1020761598 3.1020761598 3.0891265041 3.0891265041 3.0891265041 3.0891265041 3.0891265041 
3.1020761598 3.1020761598 3.0891265041 3.0891265041 3.0891265041 3.0891265041 3.1020761598 3.1020761598 3.0891265041 
3.0891265041 3.0891265041 3.0891265041 3.0891265041 3.1020761598 3.1020761598 3.1020761598 3.0891265041 3.0891265041 
3.0891265041 3.0891265041 3.1020761598 3.1020761598 3.1020761598 3.0891265041 3.0891265041 3.0891265041 3.0891265041 
3.0891265041 3.1020761598 3.1020761598 3.0891265041 3.0891265041 3.0891265041 3.0891265041 3.1020761598 3.1020761598 
3.0891265041 3.0891265041 3.0891265041 3.0891265041 3.1020761598 3.1020761598 3.0891265041 3.0891265041 3.0891265041 
3.0891265041 3.1020761598 3.1020761598 3.1020761598 3.1020761598 3.0891265041 3.0891265041 3.0891265041 3.0891265041 
3.0891265041 3.1020761598 3.1020761598 3.0891265041 3.0891265041 3.0891265041 3.0891265041 3.1020761598 3.1020761598 
3.0891265041 3.0891265041 3.0891265041 3.0891265041 3.1020761598 3.1020761598 3.0891265041 3.0891265041 3.0891265041 
3.0891265041 3.1020761598 3.1020761598 3.0891265041 3.0891265041 3.0891265041 3.0891265041 3.0891265041 3.0891265041 
3.1020761598 3.1020761598 3.1020761598 3.0891265041 3.0891265041 3.0891265041 3.0891265041 3.1020761598 3.1020761598 
3.1020761598 3.0891265041 3.0891265041 3.0891265041 3.0891265041 3.0891265041 3.1020761598 3.1020761598 3.0891265041 
3.0891265041 3.0891265041 3.0891265041 3.1020761598 3.1020761598 3.0891265041 3.0891265041 3.0891265041 3.0891265041 
3.0891265041 3.1020761598 3.1020761598 3.0891265041 3.0891265041 3.0891265041 3.0891265041 3.0891265041 3.0891265041 
3.0891265041 3.0891265041 3.1020761598 3.1020761598 3.1020761598 3.0891265041 3.0891265041 3.0891265041 3.0891265041 
3.0891265041 3.0891265041 3.0891265041 3.0891265041 3.0891265041 3.0891265041 3.1020761598 3.1020761598 3.0891265041 
3.0891265041 3.0891265041 3.0891265041 3.0891265041 3.0891265041 3.0891265041 3.0891265041 3.0891265041 3.1020761598 
3.1020761598 3.1020761598 3.0891265041 3.0891265041 3.0891265041 3.0891265041 3.0891265041 3.0891265041 3.0891265041 
3.0891265041 3.0891265041 3.0891265041 3.1020761598 3.1020761598 3.0891265041 3.0891265041 3.0891265041 3.0891265041 
3.0891265041 3.0891265041 3.0891265041 3.0891265041 3.0891265041 3.1020761598 3.1020761598 3.0891265041 3.0891265041 
3.0891265041 3.0891265041 3.0891265041 3.0891265041 3.0891265041 3.0891265041 3.0891265041 3.1020761598 3.1020761598 
3.1020761598 3.0891265041 3.0891265041 3.0891265041 3.0891265041 3.0891265041 3.0891265041 3.0891265041 3.0891265041 
3.0891265041 3.1020761598 3.1020761598 3.0891265041 3.0891265041 3.0891265041 3.0891265041 3.0891265041 3.0891265041 
3.0891265041 3.1020761598 3.1020761598 3.0891265041 3.0891265041 3.0891265041 3.0891265041 3.0891265041 3.0891265041 
3.0891265041 3.1020761598 3.1020761598 3.0891265041 3.0891265041 3.0891265041 3.0891265041 3.0891265041 3.0891265041 
3.0891265041 3.1020761598 3.1020761598 3.0891265041 3.0891265041 3.0891265041 3.0891265041 3.0891265041 3.0891265041 
3.0891265041 3.0891265041 3.1020761598 3.1020761598 3.1150258155 3.1150258155 3.1150258155 3.1150258155 3.1150258155 
3.1150258155 3.1020761598 3.1020761598 3.0891265041 3.0891265041 3.0891265041 3.0891265041 3.0891265041 3.0891265041 
3.0891265041 3.1020761598 3.1150258155 3.1150258155 3.1150258155 3.1150258155 3.1020761598 3.0891265041 3.0891265041 
3.0891265041 3.0891265041 3.0891265041 3.0891265041 3.0891265041 3.0891265041 3.0891265041 3.1020761598 3.1150258155 
3.1150258155 3.1150258155 3.1150258155 3.1020761598 3.0891265041 3.0891265041 3.0891265041 3.0891265041 3.0891265041 
3.0891265041 3.0891265041 3.0891265041 3.1020761598 3.1150258155 3.1150258155 3.1150258155 3.1020761598 3.0891265041 
3.0891265041 3.0891265041 3.0891265041 3.0891265041 3.0891265041 3.0891265041 3.1020761598 3.1150258155 3.1150258155 
3.1150258155 3.1020761598 3.0891265041 3.0891265041 3.0891265041 3.0891265041 3.0891265041 3.0891265041 3.0891265041 
3.1020761598 3.1150258155 3.1150258155 3.1150258155 3.1150258155 3.1020761598 3.0891265041 3.0891265041 3.0891265041 
3.0891265041 3.0891265041 3.0891265041 3.0891265041 3.0891265041 3.1020761598 3.1020761598 3.1150258155 3.1150258155 
3.1020761598 3.0891265041 3.0891265041 3.0891265041 3.0891265041 3.0891265041 3.0891265041 3.0891265041 3.0891265041 
3.0891265041 3.0891265041 3.0891265041 3.0761768483 3.0761768483 3.0761768483 3.0761768483 3.0761768483 3.0891265041 
3.1020761598 3.1150258155 3.1150258155 3.1150258155 3.1020761598 3.0891265041 3.0891265041 3.0891265041 3.0891265041 
3.0891265041 3.0891265041 3.0891265041 3.0891265041 3.0891265041 3.0891265041 3.0891265041 3.0891265041 3.0761768483 
3.0761768483 3.0761768483 3.0761768483 3.0761768483 3.0761768483 3.0891265041 3.1020761598 3.1150258155 3.1150258155 
3.1150258155 3.1020761598 3.1020761598 3.0891265041 3.0891265041 3.0891265041 3.0891265041 3.0891265041 3.0891265041 
3.0891265041 3.0891265041 3.0891265041 3.0891265041 3.0891265041 3.0891265041 3.0891265041 3.0761768483 3.0761768483 
3.0761768483 3.0761768483 3.0761768483 3.0891265041 3.1020761598 3.1150258155 3.1150258155 3.1150258155 3.1020761598 
3.0891265041 3.0891265041 3.0891265041 3.0891265041 3.0891265041 3.0891265041 3.0891265041 3.0891265041 3.0891265041 
3.0891265041 3.0891265041 3.0761768483 3.0761768483 3.0761768483 3.0891265041 3.1020761598 3.1020761598 3.1150258155 
3.1150258155 3.1150258155 3.1020761598 3.0891265041 3.0891265041 3.0891265041 3.0891265041 3.0891265041 3.0891265041 
3.0891265041 3.0891265041 3.0891265041 3.0891265041 3.0761768483 3.0761768483 3.0761768483 3.0891265041 3.1020761598 
3.1150258155 3.1150258155 3.1150258155 3.1020761598 3.0891265041 3.0891265041 3.0891265041 3.0891265041 3.0891265041 
3.0891265041 3.0891265041 3.0891265041 3.0891265041 3.0891265041 3.0891265041 3.0761768483 3.0761768483 3.0761768483 
3.0891265041 3.0891265041 3.1020761598 3.1150258155 3.1150258155 3.1020761598 3.0891265041 3.0891265041 3.0891265041 
3.0891265041 3.0891265041 3.0891265041 3.0891265041 3.0891265041 3.0761768483 3.0761768483 3.0761768483 3.0891265041 
3.1020761598 3.1150258155 3.1150258155 3.1150258155 3.1150258155 3.1020761598 3.0891265041 3.0891265041 3.0891265041 
3.0891265041 3.0891265041 3.0761768483 3.0761768483 3.0761768483 3.0891265041 3.1020761598 3.1150258155 3.1150258155 
3.1020761598 3.0891265041 3.0891265041 3.0891265041 3.0891265041 3.0891265041 3.0891265041 3.0891265041 3.0761768483 
3.0761768483 3.0761768483 3.0891265041 3.1020761598 3.1150258155 3.1150258155 3.1020761598 3.0891265041 3.0891265041 
3.0891265041 3.0891265041 3.0891265041 3.0891265041 3.0761768483 3.0761768483 3.0761768483 3.0891265041 3.1020761598 
3.1020761598 3.1150258155 3.1150258155 3.1150258155 3.1020761598 3.0891265041 3.0891265041 3.0891265041 3.0891265041 
3.0891265041 3.0891265041 3.0761768483 3.0761768483 3.0761768483 3.0761768483 3.0891265041 3.1020761598 3.1150258155 
3.1150258155 3.1150258155 3.1020761598 3.0891265041 3.0891265041 3.0891265041 3.0891265041 3.0891265041 3.0891265041 
3.0761768483 3.0761768483 3.0891265041 3.1020761598 3.1150258155 3.1150258155 3.1020761598 3.1020761598 3.0891265041 
3.0891265041 3.0891265041 3.0891265041 3.0891265041 3.0891265041 3.0891265041 3.0761768483 3.0761768483 3.0761768483 
3.0891265041 3.1020761598 3.1150258155 3.1150258155 3.1150258155 3.1020761598 3.0891265041 3.0891265041 3.0891265041 
3.0891265041 3.0891265041 3.0891265041 3.0761768483 3.0761768483 3.0761768483 3.0891265041 3.1020761598 3.1150258155 
3.1150258155 3.1020761598 3.0891265041 3.0891265041 3.0891265041 3.0891265041 3.0891265041 3.0891265041 3.0891265041 
3.0761768483 3.0761768483 3.0891265041 3.1020761598 3.1150258155 3.1150258155 3.1020761598 3.0891265041 3.0891265041 
3.0891265041 3.0891265041 3.0891265041 3.0891265041 3.0891265041 3.0761768483 3.0761768483 3.0761768483 3.0761768483 
3.0891265041 3.1020761598 3.1150258155 3.1150258155 3.1150258155 3.1150258155 3.1020761598 3.0891265041 3.0891265041 
3.0891265041 3.0891265041 3.0891265041 3.0891265041 3.0761768483 3.0761768483 3.0891265041 3.1020761598 3.1020761598 
3.1150258155 3.1150258155 3.1020761598 3.0891265041 3.0891265041 3.0891265041 3.0891265041 3.0891265041 3.0761768483 
3.0761768483 3.0761768483 3.0891265041 3.1020761598 3.1150258155 3.1150258155 3.1020761598 3.0891265041 3.0891265041 
3.0891265041 3.0891265041 3.0891265041 3.0891265041 3.0761768483 3.0761768483 3.0891265041 3.1020761598 3.1150258155 
3.1150258155 3.1150258155 3.1020761598 3.0891265041 3.0891265041 3.0891265041 3.0891265041 3.0891265041 3.0891265041 
3.0891265041 3.0891265041 3.0891265041 3.0891265041 3.0891265041 3.0891265041 3.0891265041 3.0891265041 3.0891265041 
3.0761768483 3.0761768483 3.0761768483 3.0761768483 3.0891265041 3.1020761598 3.1150258155 3.1279754712 3.1279754712 
3.1279754712 3.1279754712 3.1279754712 3.1150258155 3.1020761598 3.0891265041 3.0891265041 3.0891265041 3.0891265041 
3.0891265041 3.0891265041 3.0891265041 3.0891265041 3.0891265041 3.0761768483 3.0761768483 3.0891265041 3.1020761598 
3.1020761598 3.1150258155 3.1279754712 3.1279754712 3.1279754712 3.1279754712 3.1279754712 3.1279754712 3.1150258155 
3.1150258155 3.1020761598 3.1020761598 3.0891265041 3.0891265041 3.0891265041 3.0761768483 3.0761768483 3.0891265041 
3.1020761598 3.1150258155 3.1150258155 3.1279754712 3.1279754712 3.1150258155 3.1020761598 3.0891265041 3.0891265041 
3.0761768483 3.0761768483 3.0891265041 3.0891265041 3.1020761598 3.1150258155 3.1279754712 3.1279754712 3.1279754712 
3.1279754712 3.1150258155 3.1020761598 3.0891265041 3.0891265041 3.0761768483 3.0761768483 3.0891265041 3.1020761598 
3.1150258155 3.1279754712 3.1279754712 3.1279754712 3.1150258155 3.1020761598 3.0891265041 3.0891265041 3.0761768483 
3.0761768483 3.0761768483 3.0891265041 3.1020761598 3.1150258155 3.1150258155 3.1279754712 3.1279754712 3.1279754712 
3.1150258155 3.1020761598 3.0891265041 3.0891265041 3.0761768483 3.0761768483 3.0891265041 3.1020761598 3.1150258155 
3.1279754712 3.1279754712 3.1279754712 3.1279754712 3.1150258155 3.1020761598 3.0891265041 3.0891265041 3.0761768483 
3.0761768483 3.0891265041 3.1020761598 3.1020761598 3.1150258155 3.1279754712 3.1279754712 3.1150258155 3.1150258155 
3.1020761598 3.1020761598 3.0891265041 3.0891265041 3.0761768483 3.0761768483 3.0891265041 3.1020761598 3.1150258155 
3.1279754712 3.1279754712 3.1279754712 3.1150258155 3.1020761598 3.0891265041 3.0891265041 3.0761768483 3.0761768483 
3.0761768483 3.0891265041 3.1020761598 3.1150258155 3.1150258155 3.1279754712 3.1279754712 3.1279754712 3.1150258155 
3.1020761598 3.0891265041 3.0891265041 3.0891265041 3.0761768483 3.0761768483 3.0891265041 3.1020761598 3.1150258155 
3.1279754712 3.1279754712 3.1150258155 3.1020761598 3.0891265041 3.0891265041 3.0761768483 3.0761768483 3.0891265041 
3.1020761598 3.1150258155 3.1279754712 3.1279754712 3.1279754712 3.1150258155 3.1020761598 3.0891265041 3.0891265041 
3.0891265041 3.0761768483 3.0632271926 3.0632271926 3.0632271926 3.0761768483 3.0891265041 3.1020761598 3.1150258155 
3.1150258155 3.1279754712 3.1279754712 3.1279754712 3.1150258155 3.1020761598 3.0891265041 3.0891265041 3.0761768483 
3.0632271926 3.0632271926 3.0632271926 3.0632271926 3.0632271926 3.0632271926 3.0632271926 3.0761768483 3.0761768483 