# vtk DataFile Version 4.2
vtk output
ASCII
DATASET UNSTRUCTURED_GRID
POINTS 1740 double
2144.07 -94.44003 0 2911 0 0 16.54298 -37.82236 0 
5.09149 -21.30132 0 1.27433 -10.75385 0 0 0 0 
2.54575 15.14293 0 6.36291 23.76126 0 14.00014 34.89063 0 
30.50239 50.70793 0 33.39435 -52.93479 0 2050.91 -103.7862 0 
60.1465 -69.72165 0 88.83633 -83.2817 0 118.7656 -94.71113 0 
153.4168 -105.7022 0 199.5806 -117.771 0 261.4466 -130.7139 0 
345.846 -144.1892 0 460.3522 -157.0592 0 608.4185 -167.1903 0 
783.2313 -172.4016 0 941.0559 -172.4533 0 1063.409 -170.1096 0 
1164.153 -166.8746 0 1263.449 -162.682 0 1375.468 -156.8941 0 
1513.293 -148.414 0 1665.281 -137.5317 0 1791.864 -127.3721 0 
2195.451 -89.09491 0 2273.924 -80.67077 0 2383.731 -68.3513 0 
2517.64 -52.47337 0 2649.227 -35.9232 0 2740.773 -23.82991 0 
2804.387 -15.13419 0 2848.802 -8.916218 0 2881.944 -4.196067 0 
56.61447 67.79801 0 84.09687 81.25172 0 112.4783 92.48395 0 
142.1748 102.3504 0 174.8563 111.6168 0 213.124 120.8806 0 
260.3759 130.5151 0 324.6539 141.1779 0 418.1422 152.9178 0 
535.6656 162.9871 0 690.9154 170.4255 0 902.6513 172.7852 0 
1100.32 169.0517 0 1270.99 162.3262 0 1462.794 151.6837 0 
1631.287 140.0952 0 1747.993 131 0 1922.788 115.9027 0 
2069.56 101.951 0 2128.804 96.0021 0 2297.147 78.11721 0 
2414.379 64.80104 0 2554.023 47.99319 0 2673.693 32.73885 0 
2757.97 21.50315 0 2814.297 13.7575 0 2852.02 8.460961 0 
2882.272 4.148909 0 1791.052 127.4402 0 1366.894 157.3738 0 
1444.38 -152.8302 0 1547.039 146.1296 0 1589.287 -143.1614 0 
1878.731 119.8675 0 1997.072 108.9828 0 1185.654 166.0472 0 
1882.536 -119.5292 0 1971.323 -111.4145 0 1684.777 136.0292 0 
2099.317 -98.9855 0 2234.809 84.9091 0 2181.695 90.53914 0 
1728.573 -132.5703 0 1718.815 133.3509 0 1834.825 123.7132 0 
1960.305 112.4444 0 2033.69 105.4648 0 2099.184 98.99892 0 
2214.291 -71.602691081 396.8421 2955.512 17.650437693 396.8421 158.0786 -25.27112757 396.8421 
147.0109 -9.4354349279 396.8421 143.3217 0.69807068864 396.8421 142.09 11.047500087 396.8421 
144.5505 25.650125591 396.8421 148.2398 33.976773567 396.8421 155.621 44.747488008 396.8421 
171.5701 60.092165806 396.8421 174.3652 -39.7136794 396.8421 2124.254 -80.603182738 396.8421 
200.2206 -55.70274164 396.8421 227.9488 -68.571543888 396.8421 256.8748 -79.381020965 396.8421 
290.3647 -89.738514837 396.8421 334.981 -101.06095881 396.8421 394.7733 -113.12861233 396.8421 
476.3434 -125.57596233 396.8421 587.0114 -137.27566942 396.8421 730.1145 -146.18067918 396.8421 
899.0676 -150.26904448 396.8421 1051.602 -149.5557465 396.8421 1169.853 -146.76128792 396.8421 
1267.221 -143.24089045 396.8421 1363.188 -138.83882839 396.8421 1471.452 -132.89653426 396.8421 
1604.657 -124.34208795 396.8421 1751.55 -113.52173866 396.8421 1873.891 -103.52751357 396.8421 
2263.949 -66.473108411 396.8421 2339.792 -58.412764864 396.8421 2445.918 -46.673893297 396.8421 
2575.338 -31.619925919 396.8421 2702.515 -16.007826922 396.8421 2790.992 -4.6448677712 396.8421 
2852.473 3.5046970881 396.8421 2895.4 9.3221274194 396.8421 2927.431 13.732973243 396.8421 
196.807 76.725424922 396.8421 223.3682 89.863718653 396.8421 250.7983 100.8667858 396.8421 
279.4994 110.56131204 396.8421 311.0855 119.69541886 396.8421 348.0705 128.86035915 396.8421 
393.7383 138.43587322 396.8421 455.8617 149.10215684 396.8421 546.2162 160.97255108 396.8421 
659.8003 171.35481551 396.8421 809.846 179.37842876 396.8421 1014.485 182.73027839 396.8421 
1205.528 180.03060798 396.8421 1370.477 174.22824958 396.8421 1555.851 164.61438557 396.8421 
1718.696 153.8935757 396.8421 1831.49 145.36856213 396.8421 2000.426 131.06368706 396.8421 
2142.278 117.70983847 396.8421 2199.537 111.98283549 396.8421 2362.236 94.661754538 396.8421 
2475.539 81.676178913 396.8421 2610.501 65.191347589 396.8421 2726.16 50.149840797 396.8421 
2807.613 39.02742562 396.8421 2862.05 31.340261409 396.8421 2898.509 26.07506769 396.8421 
2927.749 21.78358091 396.8421 1873.106 142.01133252 396.8421 1463.165 169.79363052 396.8421 
1538.054 -128.77980559 396.8421 1637.272 159.49976489 396.8421 1678.104 -119.10176131 396.8421 
1957.846 134.83648485 396.8421 2072.22 124.45475536 396.8421 1288 177.48658462 396.8421 
1961.524 -95.866647583 396.8421 2047.334 -87.98173836 396.8421 1770.393 150.09259819 396.8421 
2171.038 -75.974942235 396.8421 2301.989 101.25673795 396.8421 2250.655 106.70788685 396.8421 
1812.721 -108.63008892 396.8421 1803.29 147.57965028 396.8421 1915.411 138.48541917 396.8421 
2036.686 127.76440919 396.8421 2107.61 121.08374945 396.8421 2170.909 114.8702059 396.8421 
2284.511 -54.840259049 793.6842 3000.027 30.39608308 793.6842 299.6143 -16.041110578 793.6842 
288.9304 -0.85690756291 793.6842 285.3691 8.8754797615 793.6842 284.1801 18.826997925 793.6842 
286.5551 32.887533184 793.6842 290.1167 40.915534901 793.6842 297.2417 51.311731695 793.6842 
312.6379 66.147186249 793.6842 315.336 -29.860602242 793.6842 2197.597 -63.537249656 793.6842 
340.2947 -45.123691235 793.6842 367.0612 -57.37644252 793.6842 394.9839 -67.64298727 793.6842 
427.3123 -77.454591335 793.6842 470.3812 -88.145494396 793.6842 528.0998 -99.488248394 793.6842 
606.8411 -111.10652971 793.6842 713.6708 -121.89427837 793.6842 851.8104 -129.88628634 793.6842 
1014.904 -133.18896363 793.6842 1162.147 -131.98255252 793.6842 1276.298 -128.92487439 793.6842 
1370.288 -125.25735271 793.6842 1462.927 -120.76695844 793.6842 1567.436 -114.78840912 793.6842 
1696.021 -106.2757379 793.6842 1837.82 -95.606283313 793.6842 1955.917 -85.818194247 793.6842 
2332.447 -49.894486449 793.6842 2405.659 -42.137506074 793.6842 2508.105 -30.869718656 793.6842 
2633.037 -16.465149801 793.6842 2755.801 -1.5736329019 793.6842 2841.209 9.2382526038 793.6842 
2900.561 16.98015824 793.6842 2941.997 22.500745221 793.6842 2972.917 26.683418862 793.6842 
336.9995 82.263413724 793.6842 362.6396 95.021915142 793.6842 389.1182 105.72881213 793.6842 
416.8239 115.18123473 793.6842 447.3145 124.10578675 793.6842 483.0167 133.08158611 793.6842 
527.1009 142.48713361 793.6842 587.0697 153.00741478 793.6842 674.2905 164.79490134 793.6842 
783.9349 175.23012839 793.6842 928.7766 183.51256414 793.6842 1126.317 187.45097817 793.6842 
1310.735 185.45631298 793.6842 1469.963 180.33859195 793.6842 1648.908 171.54252747 793.6842 
1806.105 161.56038957 793.6842 1914.987 153.54931069 793.6842 2078.064 140.00777103 793.6842 
2214.996 127.28179233 793.6842 2270.269 121.80356175 793.6842 2427.326 105.1714922 793.6842 
2536.699 92.648140537 793.6842 2666.98 76.69313984 793.6842 2778.628 62.086665909 793.6842 
2857.255 51.259744562 793.6842 2909.806 43.76500398 793.6842 2945.001 38.626418773 793.6842 
2973.224 34.43516394 793.6842 1955.16 150.3811115 793.6842 1559.437 176.30830689 793.6842 
1631.729 -110.68094981 793.6842 1727.505 166.79601069 793.6842 1766.921 -101.09745879 793.6842 
2036.96 143.58934142 793.6842 2147.368 133.71844309 793.6842 1390.347 183.24787172 793.6842 
2040.511 -78.348865279 793.6842 2123.346 -70.68673486 793.6842 1856.009 157.99508245 793.6842 
2242.759 -59.061926554 793.6842 2369.167 111.51460559 793.6842 2319.614 116.74803986 793.6842 
1896.869 -90.808764692 793.6842 1887.765 155.63205518 793.6842 1995.998 147.04687058 793.6842 
2113.066 136.87040529 793.6842 2181.531 130.50366752 793.6842 2242.634 124.56692062 793.6842 
2354.732 -43.183866403 1190.526 3044.539 38.645358999 1190.526 441.15 -9.3930411757 1190.526 
430.8497 5.1695160223 1190.526 427.4164 14.512945232 1190.526 426.2701 24.073793844 1190.526 
428.5601 37.593847615 1190.526 431.9934 45.319433913 1190.526 438.8627 55.330951407 1190.526 
453.7057 69.631625614 1190.526 456.3069 -22.629402108 1190.526 2270.94 -51.581474196 1190.526 
480.3688 -37.226529154 1190.526 506.1737 -48.925422547 1190.526 533.0934 -58.712458249 1190.526 
564.26 -68.050227207 1190.526 605.7815 -78.203701988 1190.526 661.4265 -88.944712382 1190.526 
737.3385 -99.897354879 1190.526 840.33 -109.98603353 1190.526 973.5064 -117.32549974 1190.526 
1130.74 -120.12718013 1190.526 1272.693 -118.66125501 1190.526 1382.742 -115.50527181 1190.526 
1473.356 -111.81513476 1190.526 1562.666 -107.34848742 1190.526 1663.42 -101.44670432 1190.526 
1787.385 -93.094944416 1190.526 1924.09 -82.68014886 1190.526 2037.944 -73.161352802 1190.526 
2400.946 -38.413655526 1190.526 2471.527 -30.93916296 1190.526 2570.292 -20.095675928 1190.526 
2690.735 -6.2547651551 1190.526 2809.091 8.0324340409 1190.526 2891.43 18.39371663 1190.526 
2948.647 25.807529309 1190.526 2988.597 31.091606751 1190.526 3018.403 35.093810335 1190.526 
477.1918 85.187088105 1190.526 501.9109 97.517963108 1190.526 527.4382 107.87836595 1190.526 
554.1485 117.03538622 1190.526 583.5435 125.69129445 1190.526 617.963 134.4086963 1190.526 
660.4633 143.55851192 1190.526 718.2775 153.81633924 1190.526 802.3645 165.3529527 1190.526 
908.0698 175.63356886 1190.526 1047.707 183.90961889 1190.526 1238.151 188.09583671 1190.526 
1415.942 186.52051279 1190.526 1569.449 181.86977623 1190.526 1741.965 173.68474984 1190.526 
1893.514 164.2968326 1190.526 1998.484 156.72219631 1190.526 2155.702 143.8655399 1190.526 
2287.714 131.7390187 1190.526 2341.001 126.50839607 1190.526 2492.415 110.59612969 1190.526 
2597.858 98.587711016 1190.526 2723.46 83.26054071 1190.526 2831.095 69.205028279 1190.526 
2906.899 58.773630017 1190.526 2957.56 51.546924476 1190.526 2991.49 46.589542735 1190.526 
3018.699 42.544621155 1190.526 2037.214 153.71949689 1190.526 1655.708 178.13517032 1190.526 
1725.403 -97.41090704 1190.526 1817.738 169.22949109 1190.526 1855.738 -88.034313104 1190.526 
2116.075 147.27132197 1190.526 2222.516 137.87700674 1190.526 1492.694 184.53522055 1190.526 
2119.498 -65.915000905 1190.526 2199.357 -58.494759793 1190.526 1941.625 160.92918862 1190.526 
2314.479 -47.258649493 1190.526 2436.346 116.66997819 1190.526 2388.573 121.67651318 1190.526 
1981.017 -78.010927356 1190.526 1972.24 158.69405454 1190.526 2076.584 150.55564502 1190.526 
[...]
POINT_DATA 1740
FIELD FieldData 1
Pressure 1 1740 double
3.1111361106 3.0282532782 3.0099569973 2.9871718965 2.9773679724 2.9538134548 2.9690430623 2.9865870398 3.018075807 
3.030772432 3.0124449522 3.1133643105 3.0373540448 3.0519056543 3.0693387714 3.0670993511 3.0847172975 3.0898573936 
3.1119103468 3.1171778508 3.1352395961 3.1441622431 3.1472447891 3.1554046579 3.1524830485 3.1483202801 3.145574355 
3.136317608 3.1260788676 3.119619271 3.1091701381 3.1055990022 3.1013442009 3.0947728054 3.0850707401 3.0758817817 
3.0661732858 3.058048934 3.0485977264 3.0663515291 3.0783523406 3.0920944012 3.1044095192 3.1075324486 3.1192855948 
3.1252676656 3.1333978207 3.1484155182 3.1596192957 3.1764556701 3.1861614063 3.1924333096 3.1990102145 3.2052690348 
3.20011909 3.1963487652 3.1624600813 3.1597229577 3.1637676107 3.0957999675 3.0856066268 3.0752720181 3.0640891033 
3.0537875309 3.04241958 3.0352496347 3.036072336 3.1815539194 3.2036876451 3.142304208 3.2023107743 3.1315913673 
3.1713425985 3.158438392 3.1980897128 3.1171326252 3.115328755 3.1989596288 3.1121739433 3.0977246174 3.1387981031 
3.1219071245 3.1991884041 3.1740929652 3.1598489541 3.1574220526 3.1622283341 3.1088977232 3.0259270365 3.0278862793 
3.0000227674 3.0057898944 2.9848306825 2.9945631814 3.0065733979 3.0342073389 3.0525748036 3.0391247268 3.1108850506 
3.058418668 3.07141982 3.0850132681 3.0891140702 3.1039881732 3.1154757974 3.1274609829 3.1347477815 3.1437352579 
3.1492924199 3.1534252591 3.1584094875 3.1551143538 3.1498472129 3.143504554 3.1305844012 3.120979179 3.1160687871 
3.1066316245 3.1027883153 3.0981943284 3.0909182701 3.0813372634 3.0720065783 3.0624501905 3.0550738217 3.0401457509 
3.0847786377 3.1048646801 3.1165376991 3.1262338975 3.1339543499 3.1400871568 3.1445662634 3.1533675383 3.1650775259 
3.1743204971 3.1820716309 3.1902171742 3.195402598 3.2032069312 3.2056389743 3.1947701768 3.1840166667 3.1560109283 
3.1583641365 3.1558529206 3.0800309371 3.074866541 3.0671016814 3.0562497217 3.0463235039 3.0363710355 3.0317262721 
3.0314534702 3.1676505382 3.205419966 3.1389343833 3.1981290854 3.1253245805 3.1616469072 3.1539877024 3.1998206682 
3.1137134207 3.1125314759 3.1934815291 3.1097134372 3.0778947961 3.113013386 3.1182923866 3.191714778 3.1629156825 
3.1557641949 3.1556228688 3.1625910264 3.1077009705 3.0217476424 3.0295681926 3.0018557255 3.0028643912 2.9838173983 
2.996771734 3.0095637174 3.038162975 3.0596213788 3.0484245592 3.110328428 3.0627862228 3.0820843315 3.099320722 
3.1073157657 3.1185750973 3.1286925598 3.1401902379 3.14795607 3.1551678905 3.1585597647 3.1594022488 3.1618257791 
3.1565811132 3.1485248515 3.1396407068 3.1253036446 3.1179523281 3.114577653 3.1052279468 3.1010683935 3.09558944 
3.088861723 3.0784335208 3.0689182289 3.0598998074 3.052867153 3.041758845 3.0905275632 3.1128738374 3.1305746697 
3.1397909443 3.1536313037 3.15983432 3.1686536052 3.1732250499 3.1810561021 3.1900832157 3.1941561153 3.2003487538 
3.2029900151 3.2108066096 3.210498152 3.195766189 3.1799210655 3.1523115021 3.1563708803 3.1310184244 3.0735636052 
3.0674716633 3.0605510912 3.0503294495 3.0403417767 3.0310688937 3.0264314607 3.0255543812 3.1615512324 3.2120893296 
3.1336049916 3.2003021714 3.1201401515 3.1573052435 3.1522875638 3.2067728878 3.1122037659 3.111787725 3.1934148869 
3.1092026859 3.0706152216 3.0806306801 3.1163607557 3.1899421901 3.1578572521 3.1528685179 3.1537786553 3.1596453457 
3.1073437872 3.0197072527 3.0300184728 3.0018239989 3.0030922553 2.9826692734 2.9925304801 3.0060867526 3.0383681795 
3.0599261288 3.0484145852 3.1100484595 3.0686284967 3.0864306913 3.1048038051 3.1148355259 3.1260075286 3.1352134948 
3.1483664446 3.1565556209 3.1622882006 3.16413519 3.1658781045 3.1651708283 3.1570174124 3.1460965879 3.1343415548 
3.1216320118 3.1162109781 3.1140366839 3.1049843302 3.1001857811 3.0954527301 3.0887138938 3.0780414822 3.068072956 
3.0592986206 3.0523469727 3.0420019734 3.0938842352 3.1173152977 3.1331214334 3.1445013853 3.1523007546 3.1630393322 
3.1759320308 3.1836157118 3.1913292337 3.2013977093 3.2061851418 3.2117168436 3.2123288008 3.2190503056 3.2180985133 
3.1995050884 3.1823674567 3.1518337244 3.1555013565 3.0929060381 3.0712324511 3.0642063566 3.0564379959 3.0460931964 
3.036142213 3.0269282788 3.0220322585 3.0207495403 3.1620541043 3.2205833674 3.1281610469 3.2048193069 3.116948909 
3.1558061867 3.1516546981 3.2155507883 3.1123793267 3.1115793034 3.1964707796 3.1084736764 3.0702368252 3.0708646657 
3.1152841019 3.1922548617 3.1571621322 3.1523940328 3.1526807429 3.1530614536 3.1069892135 3.0186289698 3.0312395509 
3.0015123322 3.0056771079 2.9855407967 2.9936696713 3.0066729876 3.0399467494 3.0606808093 3.0488325748 3.1098042529 
3.0702968918 3.0883225441 3.1047447673 3.1160051131 3.1277900742 3.1390420145 3.1503630129 3.1600570385 3.1665609551 
3.1680166489 3.168650391 3.166310704 3.1557038804 3.1420035558 3.1285837392 3.1192581305 3.1152850661 3.1142439654 
3.1045351447 3.0999866361 3.095632321 3.0889150214 3.078600368 3.0685708993 3.0599228571 3.0527836431 3.0429718421 
3.0952166203 3.1186960897 3.133808653 3.1458531733 3.1551599384 3.1659958332 3.1771116923 3.1855112904 3.1954006974 
3.2068925363 3.2152548643 3.2204065726 3.2211902467 3.2265826051 3.2264073512 3.2026404918 3.184155082 3.151508027 
3.1534905799 3.0701216166 3.0688767868 3.0634605399 3.0546352298 3.0439385359 3.0335941668 3.0241608133 3.0191843851 
3.0173611352 3.1625022823 3.2285570017 3.1231083692 3.2106744168 3.1154380299 3.1550714587 3.1512368689 3.2236631956 
3.1129772149 3.111352841 3.1982348092 3.1080696488 3.0718620371 3.0689325165 3.1145707256 3.1940071541 3.1560690916 
3.1526782361 3.151569806 3.1282272432 3.1063593055 3.0185586664 3.0317027253 3.0019830504 3.0068413044 2.9861703898 
2.994509217 3.0078658121 3.0408316424 3.0621913132 3.0491272985 3.1095852188 3.0706943596 3.0895007432 3.1049609251 
3.1169454881 3.1287101804 3.1408934849 3.1524390977 3.1623723181 3.1699417318 3.1712010868 3.1709421445 3.1662363881 
3.1525433343 3.1371024809 3.1233740264 3.1181991247 3.1157561029 3.1144064255 3.1040475305 3.0998279557 3.0959200736 
3.089342655 3.0791647728 3.0691352071 3.0605748396 3.0533839657 3.0436737746 3.0966521227 3.1202897499 3.1354065968 
3.1475677954 3.156565354 3.1680281974 3.1793590694 3.1886306222 3.1998045162 3.2110382827 3.2219022345 3.2275676933 
3.2294968618 3.2342018421 3.2356453947 3.2082385924 3.1863593666 3.1491839636 3.1456520016 3.0640812184 3.0685780076 
3.062356827 3.0534430151 3.0430773231 3.0328246473 3.0229627112 3.0180235792 3.0157432411 3.1619689413 3.236889283 
3.1193975468 3.2189729641 3.1146686896 3.1528499678 3.1493232528 3.231685266 3.1131870456 3.1109894705 3.2015779444 
3.1077111755 3.0722321088 3.0705731811 3.1147304178 3.1968266118 3.1539301182 3.1509487229 3.1494095939 3.0834179695 
3.106095995 3.0189031945 3.0316219289 3.0019282996 3.0066704048 2.9861506104 2.9942246009 3.0080590623 3.0414046287 
3.0629384958 3.0487203613 3.1095224172 3.0705168811 3.0895019707 3.1047443938 3.1172616763 3.1290445086 3.1418006591 
3.1537874087 3.1637672575 3.1722650498 3.173348372 3.1727448279 3.1654179214 3.1488851202 3.1323078679 3.1194750961 
3.1178182517 3.116685514 3.1146949686 3.1040390105 3.0998227861 3.0960744814 3.0898051248 3.079711665 3.0698001667 
3.0611843067 3.0540518793 3.0439056046 3.0977099384 3.1214246384 3.1368856132 3.1492720828 3.1585926858 3.170027029 
3.1814117355 3.1909518221 3.2030662077 3.2146808703 3.2267842918 3.2339719722 3.2368637566 3.2415618946 3.245890591 
3.2177134739 3.1908461555 3.1454802278 3.1200695163 3.060398542 3.0653008799 3.0591159906 3.0515842111 3.0420542498 
3.0324259773 3.0223976805 3.0178289197 3.0151912002 3.1622496039 3.2450457939 3.1170602993 3.2311334158 3.1159403848 
3.1492101311 3.1459389947 3.2392191007 3.1130712966 3.1106671314 3.2084277167 3.1075404981 3.0702154155 3.0682023488 
3.1158983956 3.2025046206 3.1514662116 3.1470821588 3.1468534322 3.0537705167 3.1060273814 3.0189416569 3.0319367216 
3.0021066656 3.0075331646 2.9870475242 2.994603675 3.0083583266 3.0420376043 3.0637216739 3.0484039489 3.109532106 
3.0702170069 3.0892474834 3.1046103297 3.1174014219 3.1291820589 3.1422285074 3.1543796945 3.1655076022 3.1729383568 
3.17413828 3.1733934466 3.1635347704 3.1454876018 3.1286762003 3.1169996648 3.1172160112 3.1175422007 3.1156089607 
3.1040727897 3.1000452428 3.0962351322 3.0901858312 3.0801032613 3.0702615524 3.061594246 3.0545610299 3.0437702209 
3.09886396 3.1228337678 3.1385142001 3.151161903 3.1605887088 3.1720595777 3.1836269839 3.1935036683 3.2061821069 
3.2182332631 3.2302646231 3.2392851538 3.2433459905 3.2482853084 3.2555108421 3.2317690164 3.2002987988 3.1402680343 
3.0799424396 3.0562798312 3.0611193479 3.0550773011 3.0495834215 3.0404853724 3.0313769074 3.0214856955 3.0174086731 
3.0146219175 3.1649670094 3.2523967577 3.1157411287 3.2474502109 3.1178070093 3.1446574996 3.141878613 3.2456878617 
3.1131231528 3.1104549136 3.2206608607 3.107605745 3.0666722693 3.0600624868 3.1165980776 3.213434101 3.149894182 
3.1421091986 3.1432181754 3.0515830602 3.1061940029 3.0183528835 3.0323956625 3.0023424459 3.0084059462 2.9879307455 
2.9953399325 3.0090424249 3.0428858103 3.0647527232 3.0479861114 3.1097282541 3.0697584789 3.0888724455 3.1044544165 
3.117389629 3.12900653 3.1423810845 3.1545281897 3.1662027954 3.1737419235 3.175011658 3.1735792624 3.1613950846 
3.141685367 3.1260201991 3.1159808349 3.1183682999 3.1184050541 3.1163831671 3.1042589785 3.1003341774 3.0964985021 
3.0905196193 3.0803731446 3.0705506717 3.0617511931 3.0548080834 3.0434049525 3.1002543942 3.1244439098 3.1402990635 
3.1531957328 3.1629319485 3.1744281491 3.1862071337 3.1962906871 3.2094793216 3.2219489022 3.2338071954 3.2436724382 
3.2488491816 3.2539789426 3.2605221718 3.2505665991 3.2188456454 3.1335592181 3.0506498997 3.0521086567 3.0573262933 
3.0528701335 3.0473162492 3.0382507958 3.0294332141 3.0196591368 3.0160896067 3.0132450907 3.1733464444 3.2575496082 
3.1160714573 3.2650201205 3.1184955841 3.1393768687 3.13711971 3.251317018 3.1133225341 3.1105373113 3.2410946016 
3.1078383895 3.058836897 3.0561321217 3.1172462072 3.2333275341 3.1497308345 3.1360476547 3.1353157263 3.052622537 
3.1065886166 3.0170976083 3.0327474786 3.0025130927 3.0093059452 2.9886079417 2.9959857497 3.0096602476 3.0435819984 
3.0656753242 3.0473842709 3.1100782908 3.0690757979 3.0881180767 3.1039525701 3.1168123953 3.1285029755 3.141983267 
3.1544552839 3.16644944 3.1741620105 3.1756216453 3.1737168713 3.1593119092 3.1389764723 3.1248169971 3.1162805559 
3.1186975268 3.1192026014 3.1170135947 3.1045804784 3.1007612436 3.096864133 3.0909141808 3.0806426741 3.0708153818 
3.0618421952 3.0549307435 3.0432708914 3.1016031563 3.1260234288 3.1419274123 3.1551075475 3.1650916058 3.1767608205 
3.18892212 3.1992444465 3.21295402 3.2256524497 3.2374993519 3.247843856 3.2534398832 3.25931268 3.2662124281 
3.2705693753 3.2512847705 3.1255688691 3.0421917853 3.0494347176 3.0525273294 3.0490107799 3.0434399181 3.0348020254 
3.0263665305 3.0167887166 3.0136877123 3.0108774815 3.1947410167 3.2604560523 3.1169243315 3.2726028045 3.1191140797 
3.1341469052 3.131117657 3.25628897 3.1136761273 3.1106763848 3.2696501417 3.1082646335 3.0543557098 3.0545588446 
3.1177738744 3.2636258591 3.1575717522 3.1283671391 3.1166686135 3.0471198438 3.1070939634 3.015495187 3.0330054239 
3.0026714797 3.0101203899 2.9891036457 2.9965754521 3.0101645836 3.0440203924 3.0663402493 3.0464312335 3.1105602015 
3.0680851892 3.0871825044 3.1025638595 3.1152457504 3.1273485819 3.1409660472 3.153991369 3.1661077894 3.1737807541 
3.175409869 3.1730980942 3.1571640793 3.1368017315 3.124422786 3.1167676859 3.119199619 3.1201028109 3.1173367185 
3.1050429805 3.1012921608 3.0974066898 3.091399246 3.081019971 3.0710706444 3.0619659704 3.0550433922 3.0433942607 
3.1028280058 3.1274643336 3.1434184682 3.156925282 3.1669315141 3.1789312224 3.1914459855 3.2020773762 3.2163399376 
3.2291526286 3.2415222613 3.2514642583 3.2573130498 3.2637893341 3.2682307611 3.2814249086 3.2975336695 3.1175711319 
3.048921573 3.0418688561 3.0459384405 3.0437519402 3.0384470216 3.0304542575 3.0224586437 3.0132266627 3.0104995091 
3.0076858521 3.2313783173 3.2666068215 3.1169497805 3.2769673531 3.1200746032 3.1321296467 3.1241529441 3.2605367526 
3.1141067758 3.1109780691 3.2932668966 3.1087787777 3.049020371 3.0494387813 3.1179778082 3.2970762069 3.1831807683 
3.1200489264 3.0783701872 3.0572378867 3.1076525218 3.0137096196 3.0331949189 3.0028265295 3.0103584799 2.9895388877 
2.9972417045 3.0107466744 3.044455601 3.067002563 3.045390245 3.1111384572 3.0670082594 3.0861920397 3.1010569865 
3.1135604343 3.1259733719 3.1396847031 3.1532208544 3.1654803675 3.1731773942 3.1749784403 3.172171893 3.1552961544 
3.1353940374 3.1243370576 3.1172313321 3.1197973151 3.1207134846 3.1175862737 3.1054400233 3.1016442089 3.0978418482 
3.0917340455 3.0813512544 3.0712292517 3.062053413 3.055044596 3.0437081226 3.1040865101 3.1289082045 3.144891725 
3.1588110377 3.1687115091 3.1810796201 3.1938498196 3.2047405414 3.2195632987 3.2325895563 3.2447929064 3.2554112768 
3.2612428523 3.268802193 3.2728501309 3.283880834 3.3354228472 3.11316775 3.046830581 3.038914098 3.0408546332 
3.03869366 3.0334025103 3.025868114 3.018233066 3.0094476157 3.0070234659 3.0040015218 3.2892662525 3.2692647564 
3.1176622505 3.2753919463 3.1208732067 3.1442623142 3.1154256878 3.2647837836 3.1145098536 3.1113159591 3.3040333765 
3.1093215047 3.043619429 3.0417755646 3.1182182525 3.319850173 3.2385283699 3.1111799523 3.0462963401 3.0556050675 
3.1080944409 3.011644568 3.0333221567 3.00293224 3.0104269657 2.989880366 2.9980048566 3.0115083182 3.0449649976 
3.0677528552 3.0443687103 3.1116048614 3.0660653831 3.0852447126 3.0998401782 3.1122513268 3.1248590166 3.1385937028 
3.1525784545 3.1648069867 3.1725717581 3.1747475486 3.1713860096 3.1543896902 3.1349502319 3.1247488399 3.1176977968 
3.1205630411 3.121264804 3.1180454913 3.1056418429 3.1017977093 3.0980033638 3.0917682281 3.0814140179 3.0711693823 
3.0620018495 3.0547883919 3.0441144942 3.1054188688 3.1304538537 3.1464506602 3.1608128976 3.1705974837 3.1832859511 
3.1962785273 3.2072921653 3.2226018697 3.2357798116 3.2482084716 3.258179953 3.264664781 3.272791383 3.2745284155 
3.2804984823 3.3267941989 3.1202977919 3.0411494228 3.0334327961 3.0365815303 3.034243865 3.0286844501 3.0214015843 
3.0139414366 3.0054481953 3.0033701111 2.9998979956 3.3449391395 3.2737302369 3.1182724149 3.2749471696 3.1215205211 
3.1893775132 3.1023736225 3.2685506061 3.1149917031 3.1117157293 3.2925862679 3.109783323 3.0387211581 3.0355024631 
3.1186659595 3.317345998 3.3181371885 3.1030697895 3.0141892071 3.0459296567 3.1084738149 3.009336361 3.0333862117 
3.0032788227 3.0107393431 2.9901648845 2.9988695276 3.0123193834 3.045617038 3.0686030353 3.0435317242 3.1120193991 
3.0655346475 3.0845174222 3.099163279 3.1115709899 3.1242387412 3.1377795748 3.1522701553 3.164423391 3.1722262244 
3.174632307 3.1710459286 3.1544649797 3.1356058882 3.1255317692 3.1177427306 3.1206956418 3.1220524522 3.1186613862 
3.1058423868 3.1018710459 3.0980009959 3.0915882406 3.0812307929 3.0708372101 3.0617212254 3.0542479536 3.0443765416 
3.1068144132 3.1320784048 3.1480337679 3.1627869133 3.1724962955 3.1854217405 3.1986790486 3.2096993992 3.2252998439 
3.2386389405 3.2509912202 3.2611575955 3.2674931455 3.2760668266 3.2796172719 3.2784700275 3.3289573213 3.1431252146 
3.0460919782 3.0230157859 3.0303444933 3.0291211251 3.0233474821 3.0165407025 3.0093653497 3.0009914018 2.9996520174 
2.9951654087 3.3744777275 3.2774994914 3.118323921 3.2756692881 3.1218748085 3.2937121637 3.079636849 3.2717058865 
3.1154089384 3.1120422013 3.2833143127 3.1101301324 3.0293606799 3.0274503398 3.119043953 3.3069104281 3.4084877757 
3.0900550978 2.9875053167 3.0433154218 3.108803418 3.0072377036 3.0335346385 3.0039676019 3.0113979557 2.9905162254 
2.9998541664 3.0131430729 3.0466164827 3.0695755456 3.0430555381 3.1123346889 3.0652726125 3.0839717468 3.0990883657 
3.1115035927 3.124018407 3.1372553652 3.1522690589 3.1640319318 3.1721951348 3.1749005327 3.171427414 3.1555604894 
3.1356396803 3.1258175515 3.1173257298 3.120078477 3.1225571519 3.1192554176 3.1060201856 3.1018660144 3.0979718972 
3.0912317505 3.0808740047 3.0702163469 3.0612482698 3.0535152291 3.0443447434 3.1079446827 3.1335122976 3.149336 
3.1643037614 3.1740134663 3.1872006284 3.200718267 3.2117513566 3.2270900712 3.2408457294 3.2528815936 3.263273418 
3.2699153284 3.2789720171 3.2823507521 3.2808757902 3.3444290789 3.1622181546 3.0272956937 3.0150086189 3.0236721447 
3.0228421464 3.0177056504 3.0117003477 3.0049313545 2.9969554818 2.996365725 2.9902789875 3.3971033965 3.2816626137 
3.1177302567 3.2808087737 3.1223548736 3.4599325888 3.0352815321 3.2739678245 3.1157254779 3.1124336046 3.2837674363 
3.1104064872 3.0224931548 3.0220717361 3.1196732849 3.3113158863 3.5185750238 3.0662922006 2.9969418382 3.0133728235 
3.1089138182 3.005925938 3.0323004128 3.0037619811 3.0118769979 2.9901204269 3.0003327787 3.0135971316 3.0462020644 
3.0699376633 3.0422160989 3.1123284114 3.0643419 3.0827835787 3.0991619328 3.1114770177 3.1240563944 3.1363821035 
3.1520655219 3.1629932293 3.1724476411 3.1756584746 3.1725981138 3.1580346312 3.136325478 3.1259016926 3.1169503953 
3.1197809281 3.1232857244 3.1197954642 3.106028695 3.101792945 3.0978132315 3.0905575957 3.0801676785 3.0692899555 
3.0604311754 3.0525490703 3.0438945192 3.1084010784 3.1342002653 3.1501305906 3.1652117426 3.1749313186 3.1883062122 
3.201991426 3.2129536821 3.2281291819 3.2425536782 3.2548851719 3.265061866 3.2722874415 3.2825428154 3.2853755037 
3.283308579 3.3496156973 3.1323172772 3.0184405055 3.0141028037 3.0191964693 3.0185732361 3.0149574755 3.0090686347 
3.0022492148 2.9945936712 2.9940831113 2.9871639315 3.3885045069 3.2849305812 3.1169635777 3.2837731251 3.1225044749 
3.5939195937 2.9923513639 3.2762334234 3.1159267103 3.1127468029 3.2908474643 3.1106379657 3.0190549624 3.0216997465 
3.120581809 3.3225152872 3.5598693516 3.039982541 3.0157883613 3.0149271031 3.1084576967 3.0062394747 3.0303708438 
3.0019056895 3.0085140194 2.9879777316 2.9994389478 3.0131765872 3.0474694233 3.0702847214 3.0406154234 3.1118369708 
3.0637466779 3.081905023 3.0988769814 3.1102134559 3.1234974129 3.1347569424 3.1530940663 3.1641072445 3.1745236394 
3.1797675879 3.175921638 3.1616725984 3.1371741614 3.1260859557 3.1175400176 3.1203777497 3.1238269914 3.1189818536 
3.106269024 3.1016413009 3.0973056064 3.0896797575 3.0792361744 3.0681060369 3.0592477962 3.051299337 3.0420439475 
3.108896846 3.1342844142 3.1511671957 3.1665383944 3.1761788094 3.1892665793 3.2031274227 3.2146632853 3.2301841719 
3.2454181999 3.2582595476 3.2699775413 3.2757829352 3.2865624418 3.2860323415 3.2897709737 3.3607670713 3.0791331832 
2.9996102451 3.0225342924 3.0236604379 3.0233707162 3.0185278112 3.0109384057 3.0034385023 2.9959041946 2.994812983 
2.9875180305 3.4060429337 3.287647117 3.1178764131 3.2894816771 3.1220489119 3.4073208127 2.9855106922 3.2796811212 
3.1154424187 3.112357285 3.2953615964 3.1103795704 3.0215757887 3.0235556706 3.120638466 3.3186127537 3.3978264962 
3.0217693803 3.0204845433 3.0275890221 3.1083847919 3.0104074924 3.0321613032 3.0049268525 3.0105930734 2.9901652796 
3.0039230113 3.0169801929 3.0544322975 3.0733859698 3.0440654973 3.1142758779 3.0609477265 3.0828111836 3.0993069777 
3.1124630474 3.1265420731 3.1377655668 3.1586291155 3.1755621574 3.1824860182 3.186823525 3.1806467345 3.1613434979 
3.1357740361 3.1254148038 3.1194053237 3.1226384404 3.1233149213 3.118233627 3.1055387566 3.1014457567 3.0964055873 
3.086954779 3.0777206734 3.0654239628 3.0570927485 3.0485473181 3.039248681 3.1087499041 3.1359994925 3.1559650836 
3.1712720217 3.1799003885 3.1973778775 3.2080572979 3.2173583095 3.2363508093 3.2500686155 3.2652043831 3.2730866988 