# vtk DataFile Version 4.2
vtk output
ASCII
DATASET POLYDATA
POINTS 6393 float
2489.14 -3055.15 5800 2493.85 -3067.83 5800 2520.31 -3055.15 5800 
2483.81 -3042.15 5800 2522.85 -3054.51 5800 2549.49 -3042.15 5800 
2478.47 -3029.15 5800 2551.85 -3041.05 5800 2577.48 -3029.14 5800 
2473.14 -3016.15 5800 2580.86 -3027.58 5800 2605.48 -3016.14 5800 
2467.81 -3003.15 5800 2609.86 -3014.11 5800 2633.48 -3003.14 5800 
2462.47 -2990.15 5800 2464.85 -2995.95 5800 2638.86 -3000.64 5800 
2661.48 -2990.14 5800 2457.14 -2977.14 5800 2667.86 -2987.17 5800 
2689.47 -2977.14 5800 2451.81 -2964.14 5800 2696.86 -2973.7 5800 
2717.47 -2964.13 5800 2446.47 -2951.14 5800 2725.87 -2960.24 5800 
2745.47 -2951.13 5800 2441.14 -2938.14 5800 2754.87 -2946.77 5800 
2763.72 -2938.13 5800 2435.8 -2925.14 5800 2435.86 -2925.27 5800 
2771.82 -2925.13 5800 2430.47 -2912.14 5800 2777.63 -2912.13 5800 
2425.14 -2899.14 5800 2783.45 -2899.13 5800 2419.8 -2886.14 5800 
2783.87 -2898.19 5800 2789.27 -2886.13 5800 2414.47 -2873.14 5800 
2795.09 -2873.12 5800 2409.14 -2860.14 5800 2800.91 -2860.12 5800 
2403.8 -2847.14 5800 2406.86 -2854.6 5800 2806.72 -2847.12 5800 
2398.47 -2834.14 5800 2812.54 -2834.12 5800 2393.13 -2821.13 5800 
2812.88 -2833.36 5800 2818.36 -2821.12 5800 2387.8 -2808.13 5800 
2824.18 -2808.12 5800 2382.47 -2795.13 5800 2829.99 -2795.12 5800 
2377.13 -2782.13 5800 2377.87 -2783.92 5800 2835.81 -2782.12 5800 
2371.8 -2769.13 5800 2841.63 -2769.11 5800 2359.84 -2756.13 5800 
2841.89 -2768.54 5800 2847.45 -2756.11 5800 2340.89 -2743.13 5800 
2348.87 -2748.6 5800 2853.26 -2743.11 5800 2321.94 -2730.13 5800 
2859.08 -2730.11 5800 2302.99 -2717.13 5800 2319.87 -2728.71 5800 
2864.9 -2717.11 5800 2284.04 -2704.13 5800 2290.87 -2708.82 5800 
2870.72 -2704.11 5800 2265.09 -2691.13 5800 2870.89 -2703.72 5800 
2876.54 -2691.11 5800 2246.14 -2678.13 5800 2261.87 -2688.92 5800 
2882.35 -2678.11 5800 2227.19 -2665.13 5800 2232.87 -2669.03 5800 
2888.17 -2665.11 5800 2208.03 -2652.13 5800 2893.99 -2652.1 5800 
2185.92 -2639.13 5800 2203.87 -2649.43 5800 2899.81 -2639.1 5800 
2163.29 -2626.13 5800 2174.87 -2632.78 5800 2899.9 -2638.9 5800 
2905.21 -2626.1 5800 2140.65 -2613.13 5800 2145.87 -2616.13 5800 
2910.08 -2613.1 5800 2118.01 -2600.13 5800 2914.94 -2600.1 5800 
2095.37 -2587.13 5800 2116.87 -2599.47 5800 2919.81 -2587.1 5800 
2072.73 -2574.13 5800 2087.87 -2582.82 5800 2925.21 -2574.1 5800 
2050.1 -2561.13 5800 2058.87 -2566.17 5800 2928.9 -2568.88 5800 
2934.18 -2561.1 5800 2027.4 -2548.13 5800 2029.87 -2549.51 5800 
2946.72 -2548.09 5800 2015.99 -2535.13 5800 2957.91 -2537.31 5800 
2960.2 -2535.09 5800 2011.76 -2522.12 5800 2973.69 -2522.09 5800 
2009.56 -2509.12 5800 2986.91 -2509.35 5800 2987.17 -2509.09 5800 
2008.61 -2496.12 5800 3000.66 -2496.09 5800 2008.95 -2483.12 5800 
3014.15 -2483.09 5800 2009.29 -2470.12 5800 3015.91 -2481.38 5800 
3027.63 -2470.09 5800 2009.63 -2457.12 5800 3041.12 -2457.08 5800 
2009.97 -2444.12 5800 3044.92 -2453.42 5800 3054.6 -2444.08 5800 
2010.31 -2431.12 5800 3068.09 -2431.08 5800 2010.65 -2418.12 5800 
3073.92 -2425.46 5800 3081.58 -2418.08 5800 2010.99 -2405.12 5800 
3095.06 -2405.08 5800 2011.33 -2392.11 5800 3102.92 -2397.5 5800 
3108.55 -2392.08 5800 2011.67 -2379.11 5800 3122.03 -2379.08 5800 
2012.01 -2366.11 5800 3131.93 -2369.54 5800 3135.52 -2366.07 5800 
2012.35 -2353.11 5800 3149 -2353.07 5800 2012.69 -2340.11 5800 
3160.93 -2341.58 5800 3162.49 -2340.07 5800 2013.03 -2327.11 5800 
3175.98 -2327.07 5800 2013.37 -2314.11 5800 3189.46 -2314.07 5800 
2013.71 -2301.11 5800 3189.93 -2313.63 5800 3197.61 -2301.07 5800 
2014.05 -2288.11 5800 3199.09 -2288.07 5800 2014.39 -2275.11 5800 
3200.58 -2275.06 5800 2014.73 -2262.1 5800 3202.06 -2262.06 5800 
2015.07 -2249.1 5800 3203.54 -2249.06 5800 2015.41 -2236.1 5800 
3205.03 -2236.06 5800 2015.75 -2223.1 5800 3206.51 -2223.06 5800 
2016.09 -2210.1 5800 3207.99 -2210.06 5800 2016.43 -2197.1 5800 
3209.47 -2197.06 5800 2016.77 -2184.1 5800 3210.96 -2184.06 5800 
2017.11 -2171.1 5800 3212.44 -2171.06 5800 2017.45 -2158.1 5800 
3213.92 -2158.06 5800 2017.79 -2145.1 5800 3215.41 -2145.05 5800 
2018.19 -2132.09 5800 3216.89 -2132.05 5800 2018.58 -2119.09 5800 
3218.37 -2119.05 5800 2018.97 -2106.09 5800 3218.95 -2114.02 5800 
3219.86 -2106.05 5800 2019.4 -2093.09 5800 3221.34 -2093.05 5800 
2019.87 -2080.09 5800 3222.82 -2080.05 5800 2020.35 -2067.09 5800 
3224.31 -2067.05 5800 2020.83 -2054.09 5800 3225.79 -2054.05 5800 
2021.3 -2041.09 5800 3227.27 -2041.05 5800 2019.16 -2028.09 5800 
3228.76 -2028.04 5800 2016.24 -2015.09 5800 3230.24 -2015.04 5800 
2013.32 -2002.08 5800 3231.72 -2002.04 5800 2010.4 -1989.08 5800 
3233.21 -1989.04 5800 2007.49 -1976.08 5800 3234.69 -1976.04 5800 
2004.57 -1963.08 5800 3236.17 -1963.04 5800 2001.65 -1950.08 5800 
3237.52 -1950.04 5800 1998.74 -1937.08 5800 2000.92 -1946.81 5800 
3238.81 -1937.04 5800 1995.82 -1924.08 5800 3239.88 -1924.04 5800 
1992.9 -1911.08 5800 3240.94 -1911.04 5800 1989.99 -1898.08 5800 
3242.01 -1898.03 5800 1987.07 -1885.08 5800 3243.08 -1885.03 5800 
1984.15 -1872.08 5800 3244.15 -1872.03 5800 1981.23 -1859.07 5800 
3245.21 -1859.03 5800 1978.32 -1846.07 5800 3246.28 -1846.03 5800 
1975.4 -1833.07 5800 3247.35 -1833.03 5800 1972.48 -1820.07 5800 
3247.97 -1825.46 5800 3248.42 -1820.03 5800 1969.57 -1807.07 5800 
1971.93 -1817.6 5800 3249.49 -1807.03 5800 1966.65 -1794.07 5800 
3250.55 -1794.03 5800 1963.73 -1781.07 5800 3251.62 -1781.02 5800 
1960.82 -1768.07 5800 3252.69 -1768.02 5800 1957.9 -1755.07 5800 
3253.76 -1755.02 5800 1956.87 -1742.07 5800 3254.82 -1742.02 5800 
1958.24 -1729.07 5800 3255.89 -1729.02 5800 1959.11 -1716.06 5800 
3256.82 -1716.02 5800 1961.94 -1703.06 5800 3257.73 -1703.02 5800 
1965.45 -1690.06 5800 3258.6 -1690.02 5800 1968.97 -1677.06 5800 
3259.45 -1677.02 5800 1971.94 -1666.1 5800 1972.52 -1664.06 5800 
3260.27 -1664.02 5800 1976.22 -1651.06 5800 3261.07 -1651.01 5800 
1979.9 -1638.06 5800 3261.85 -1638.01 5800 1983.56 -1625.06 5800 
3262.61 -1625.01 5800 1987.21 -1612.06 5800 3263.35 -1612.01 5800 
1990.83 -1599.05 5800 3264.06 -1599.01 5800 1994.44 -1586.05 5800 
3268.18 -1586.01 5800 1998.03 -1573.05 5800 3268.42 -1573.01 5800 
2000.95 -1562.44 5800 2001.63 -1560.05 5800 3268.78 -1560.01 5800 
2005.32 -1547.05 5800 3268.85 -1547.01 5800 2009.01 -1534.05 5800 
3269.93 -1534.01 5800 2012.71 -1521.05 5800 3270.53 -1521 5800 
2016.4 -1508.05 5800 3270.95 -1508 5800 2019.33 -1495.05 5800 
3271.38 -1495 5800 2020.23 -1482.04 5800 3271.8 -1482 5800 
2021.21 -1469.04 5800 3272.23 -1469 5800 2022.2 -1456.04 5800 
3272.65 -1456 5800 2023.16 -1443.04 5800 3273.07 -1443 5800 
2024.19 -1430.04 5800 3273.5 -1430 5800 2025.53 -1417.04 5800 
3273.92 -1417 5800 2026.87 -1404.04 5800 3274.34 -1404 5800 
2028.22 -1391.04 5800 3274.77 -1390.99 5800 2029.56 -1378.04 5800 
3275.19 -1377.99 5800 2029.96 -1374.14 5800 2030.91 -1365.04 5800 
3275.62 -1364.99 5800 2032.25 -1352.03 5800 3276.04 -1351.99 5800 
2033.59 -1339.03 5800 3276.46 -1338.99 5800 2034.64 -1326.03 5800 
3276.89 -1325.99 5800 2035.46 -1313.03 5800 3277.01 -1322.16 5800 
3277.31 -1312.99 5800 2036.27 -1300.03 5800 3277.73 -1299.99 5800 
2037.08 -1287.03 5800 3278.16 -1286.99 5800 2037.9 -1274.03 5800 
3278.58 -1273.98 5800 2038.71 -1261.03 5800 3279.01 -1260.98 5800 
2039.52 -1248.03 5800 3279.43 -1247.98 5800 2040.39 -1235.02 5800 
3279.85 -1234.98 5800 2040.08 -1222.02 5800 3280.28 -1221.98 5800 
2039.82 -1209.02 5800 3280.7 -1208.98 5800 2039.61 -1196.02 5800 
3281.12 -1195.98 5800 2039.43 -1183.02 5800 3281.55 -1182.98 5800 
2039.28 -1170.02 5800 3281.99 -1169.98 5800 2039.15 -1157.02 5800 
3282.43 -1156.98 5800 2039.03 -1144.02 5800 3282.88 -1143.97 5800 
2038.93 -1131.02 5800 3283.34 -1130.97 5800 2038.73 -1118.02 5800 
3283.8 -1117.97 5800 2037.52 -1105.01 5800 3284.32 -1104.97 5800 
2036.3 -1092.01 5800 3284.78 -1091.97 5800 2034.9 -1079.01 5800 
3284.87 -1078.97 5800 2031.64 -1066.01 5800 3285.13 -1065.97 5800 
2033.89 -1053.01 5800 3285.41 -1052.97 5800 2035.43 -1040.01 5800 
3285.68 -1039.97 5800 2037.13 -1027.01 5800 3285.94 -1026.97 5800 
2039.15 -1014.01 5800 3286.2 -1013.96 5800 2041.18 -1001.01 5800 
3286.46 -1000.96 5800 2043.21 -988.006 5800 3286.8 -987.963 5800 
2045.23 -975.005 5800 3287.14 -974.962 5800 2047.26 -962.003 5800 
3287.48 -961.961 5800 2049.28 -949.002 5800 2544.41 -948.985 5800 
2552.01 -954.546 5800 2581.02 -960.478 5800 2607.75 -948.983 5800 
3287.21 -948.96 5800 2051.31 -936.001 5800 2527.83 -935.985 5800 
2610.02 -947.828 5800 2639.02 -945.092 5800 2668.02 -942.711 5800 
2697.02 -940.867 5800 2726.02 -939.459 5800 2744.04 -935.977 5800 
3286.26 -935.959 5800 2053.25 -923 5800 2508.6 -922.984 5800 
2523.02 -932.29 5800 2755.02 -933.127 5800 2759.99 -922.976 5800 
3285.52 -922.958 5800 2055.25 -909.999 5800 2491.82 -909.984 5800 
2494.02 -911.278 5800 2766.36 -909.975 5800 3283.62 -909.957 5800 
2057.31 -896.998 5800 2468.76 -896.984 5800 2772.73 -896.973 5800 
3280.87 -896.956 5800 2059 -886.613 5800 2059.41 -883.997 5800 
2447.78 -883.984 5800 2465.02 -894.159 5800 2779.09 -883.972 5800 
3278.11 -883.955 5800 2061.44 -870.996 5800 2425.67 -870.983 5800 
2436.02 -877.041 5800 2784.03 -873.887 5800 2785.48 -870.971 5800 
3277.05 -878.903 5800 3275.36 -870.954 5800 2063.46 -857.995 5800 
2410.23 -857.983 5800 2791.82 -857.97 5800 3272.61 -857.953 5800 
2065.49 -844.994 5800 2403.12 -844.982 5800 2407.02 -854.373 5800 
2798.19 -844.969 5800 3269.86 -844.952 5800 2067.49 -831.993 5800 
2397.72 -831.981 5800 2804.55 -831.967 5800 3267.11 -831.951 5800 
2069.45 -818.992 5800 2390.08 -818.981 5800 2810.92 -818.966 5800 
3264.36 -818.95 5800 2071.42 -805.991 5800 2380.66 -805.98 5800 
2813.03 -814.648 5800 2817.38 -805.965 5800 3261.61 -805.95 5800 
2073.36 -792.99 5800 2371.24 -792.979 5800 2378.02 -802.334 5800 
2825.68 -792.964 5800 3258.72 -792.949 5800 2075.3 -779.988 5800 
2361.82 -779.979 5800 2838.1 -779.962 5800 3255.42 -779.948 5800 
[...]
POINT_DATA 6393
SCALARS Pressure double
LOOKUP_TABLE default
3.0932710339 3.0932710339 3.0932710339 3.0932710339 3.0932710339 3.0932710339 3.0932710339 3.0932710339 3.0932710339 
3.0932710339 3.0932710339 3.0932710339 3.0932710339 3.0932710339 3.0932710339 3.0932710339 3.0932710339 3.0932710339 
3.0932710339 3.0932710339 3.0932710339 3.0932710339 3.0932710339 3.0932710339 3.0932710339 3.0932710339 3.0932710339 
3.0932710339 3.0932710339 3.0932710339 3.0932710339 3.0932710339 3.0932710339 3.0932710339 3.0932710339 3.0932710339 
3.0932710339 3.0932710339 3.0932710339 3.0932710339 3.0932710339 3.0932710339 3.0932710339 3.0932710339 3.0932710339 
3.0932710339 3.0932710339 3.0932710339 3.0932710339 3.0932710339 3.0932710339 3.0932710339 3.0932710339 3.0932710339 
3.0932710339 3.0932710339 3.0932710339 3.0932710339 3.0932710339 3.0932710339 3.0932710339 3.0932710339 3.0932710339 
3.0932710339 3.0932710339 3.0932710339 3.0932710339 3.0932710339 3.0932710339 3.0932710339 3.0932710339 3.0932710339 
3.0932710339 3.0932710339 3.0932710339 3.0932710339 3.0932710339 3.0932710339 3.0932710339 3.0932710339 3.0932710339 
3.0932710339 3.0932710339 3.0932710339 3.0932710339 3.0932710339 3.0932710339 3.0932710339 3.0932710339 3.0932710339 
3.0932710339 3.0932710339 3.0932710339 3.0932710339 3.0932710339 3.0932710339 3.0932710339 3.0932710339 3.0932710339 
3.0932710339 3.0932710339 3.0932710339 3.0932710339 3.0932710339 3.0932710339 3.0932710339 3.0932710339 3.0932710339 
3.0932710339 3.0932710339 3.0932710339 3.0932710339 3.0932710339 3.0932710339 3.0932710339 3.0932710339 3.0932710339 
3.0932710339 3.0932710339 3.0932710339 3.0932710339 3.0932710339 3.0932710339 3.0932710339 3.0932710339 3.0932710339 
3.0932710339 3.0932710339 3.0932710339 3.0932710339 3.0932710339 3.0932710339 3.0932710339 3.0932710339 3.0932710339 
3.0932710339 3.0932710339 3.0932710339 3.0932710339 3.0932710339 3.0932710339 3.0932710339 3.0932710339 3.0932710339 
3.0932710339 3.0932710339 3.0932710339 3.0932710339 3.0932710339 3.0932710339 3.0932710339 3.0932710339 3.0932710339 
3.0932710339 3.0932710339 3.0932710339 3.0932710339 3.0932710339 3.0932710339 3.0932710339 3.0932710339 3.0932710339 
3.0932710339 3.0932710339 3.0932710339 3.0932710339 3.0932710339 3.0932710339 3.0932710339 3.0932710339 3.0932710339 
3.0932710339 3.0932710339 3.0932710339 3.0932710339 3.0932710339 3.0932710339 3.0932710339 3.0932710339 3.0932710339 
3.0932710339 3.0932710339 3.0932710339 3.0932710339 3.0932710339 3.0932710339 3.0932710339 3.0932710339 3.0932710339 
3.0932710339 3.0932710339 3.0932710339 3.0932710339 3.0932710339 3.0932710339 3.0932710339 3.0932710339 3.0932710339 
3.0932710339 3.0932710339 3.0932710339 3.0932710339 3.0932710339 3.0932710339 3.0932710339 3.0932710339 3.0932710339 
3.0932710339 3.0932710339 3.0932710339 3.0932710339 3.0932710339 3.0932710339 3.0932710339 3.0932710339 3.0932710339 
3.0932710339 3.0932710339 3.0932710339 3.0932710339 3.0932710339 3.0932710339 3.0932710339 3.0932710339 3.0932710339 
3.0932710339 3.0932710339 3.0932710339 3.0932710339 3.0932710339 3.0932710339 3.0932710339 3.0932710339 3.0932710339 
3.0932710339 3.0932710339 3.0932710339 3.0932710339 3.0932710339 3.0932710339 3.0932710339 3.0932710339 3.0932710339 
3.0932710339 3.0932710339 3.0932710339 3.0932710339 3.0932710339 3.0932710339 3.0932710339 3.0932710339 3.0932710339 
3.0932710339 3.0932710339 3.0932710339 3.0932710339 3.0932710339 3.0932710339 3.0932710339 3.0932710339 3.0932710339 
3.0932710339 3.0932710339 3.0932710339 3.0932710339 3.0932710339 3.0932710339 3.0932710339 3.0932710339 3.0932710339 
3.0932710339 3.0932710339 3.0932710339 3.0932710339 3.0932710339 3.0932710339 3.0932710339 3.0932710339 3.0932710339 
3.0932710339 3.0932710339 3.0932710339 3.0932710339 3.0932710339 3.0932710339 3.0932710339 3.0932710339 3.0932710339 
3.0932710339 3.0932710339 3.0932710339 3.0932710339 3.0932710339 3.0932710339 3.0932710339 3.0932710339 3.0932710339 
3.0932710339 3.0932710339 3.0932710339 3.0932710339 3.0932710339 3.0932710339 3.0932710339 3.0932710339 3.0932710339 
3.0932710339 3.0932710339 3.0932710339 3.0932710339 3.0932710339 3.0932710339 3.0932710339 3.0932710339 3.0932710339 
3.0932710339 3.0932710339 3.0932710339 3.0932710339 3.0932710339 3.0932710339 3.0932710339 3.0932710339 3.0932710339 
3.0932710339 3.0932710339 3.0932710339 3.0932710339 3.0932710339 3.0932710339 3.0932710339 3.0932710339 3.0932710339 
3.0932710339 3.0932710339 3.0932710339 3.0932710339 3.0932710339 3.0932710339 3.0932710339 3.0932710339 3.0932710339 
3.0932710339 3.0932710339 3.0932710339 3.0932710339 3.0932710339 3.0932710339 3.0932710339 3.0932710339 3.0932710339 
3.0932710339 3.0932710339 3.0932710339 3.0932710339 3.0932710339 3.0932710339 3.0932710339 3.0932710339 3.0932710339 
3.0932710339 3.0932710339 3.0932710339 3.0932710339 3.0932710339 3.0932710339 3.0932710339 3.0932710339 3.0932710339 
3.0932710339 3.0932710339 3.0932710339 3.0932710339 3.0932710339 3.1078652246 3.1078652246 3.1078652246 3.1078652246 
3.0932710339 3.0932710339 3.1078652246 3.1078652246 3.1078652246 3.1078652246 3.1078652246 3.1078652246 3.1078652246 
3.0932710339 3.0932710339 3.1078652246 3.1078652246 3.1078652246 3.1078652246 3.0932710339 3.0932710339 3.1078652246 
3.1078652246 3.1078652246 3.0932710339 3.0932710339 3.1078652246 3.1078652246 3.0932710339 3.0932710339 3.0932710339 
3.1078652246 3.1078652246 3.1078652246 3.0932710339 3.0932710339 3.1078652246 3.1078652246 3.1078652246 3.1078652246 
3.0932710339 3.0932710339 3.0932710339 3.1078652246 3.1078652246 3.0932710339 3.0932710339 3.1078652246 3.1078652246 
3.1078652246 3.0932710339 3.0932710339 3.1078652246 3.1078652246 3.0932710339 3.0932710339 3.1078652246 3.1078652246 
3.0932710339 3.0932710339 3.1078652246 3.1078652246 3.1078652246 3.0932710339 3.0932710339 3.1078652246 3.1078652246 
3.1078652246 3.0932710339 3.0932710339 3.1078652246 3.1078652246 3.0932710339 3.0932710339 3.1078652246 3.1078652246 
3.1078652246 3.0932710339 3.0932710339 3.1078652246 3.1078652246 3.1078652246 3.0932710339 3.0932710339 3.1078652246 
3.1078652246 3.1078652246 3.0932710339 3.0932710339 3.0932710339 3.1078652246 3.1078652246 3.0932710339 3.0932710339 
3.1078652246 3.1078652246 3.1078652246 3.0932710339 3.0932710339 3.1078652246 3.1078652246 3.0932710339 3.0932710339 
3.1078652246 3.1078652246 3.1078652246 3.0932710339 3.0932710339 3.1078652246 3.1078652246 3.0932710339 3.0932710339 
3.1078652246 3.1078652246 3.0932710339 3.0932710339 3.1078652246 3.1078652246 3.0932710339 3.0932710339 3.0932710339 
3.1078652246 3.1078652246 3.0932710339 3.0932710339 3.1078652246 3.1078652246 3.1078652246 3.0932710339 3.0932710339 
3.1078652246 3.1078652246 3.1224594153 3.1224594153 3.1224594153 3.1078652246 3.0932710339 3.0932710339 3.1078652246 
3.1224594153 3.1224594153 3.1224594153 3.1078652246 3.0932710339 3.0932710339 3.1078652246 3.1224594153 3.1224594153 
3.1224594153 3.1224594153 3.1078652246 3.0932710339 3.0932710339 3.1078652246 3.1224594153 3.1224594153 3.1224594153 
3.1224594153 3.1224594153 3.1078652246 3.0932710339 3.0932710339 3.1078652246 3.1224594153 3.1224594153 3.1078652246 
3.1078652246 3.0932710339 3.0932710339 3.1078652246 3.1224594153 3.1224594153 3.1224594153 3.1224594153 3.1078652246 
3.0932710339 3.0932710339 3.1078652246 3.1224594153 3.1224594153 3.1078652246 3.0932710339 3.0932710339 3.1078652246 
3.1078652246 3.1224594153 3.1224594153 3.1224594153 3.1224594153 3.1078652246 3.0932710339 3.0932710339 3.1078652246 
3.1224594153 3.1224594153 3.1078652246 3.0932710339 3.0932710339 3.0786768432 3.0786768432 3.0786768432 3.0932710339 
3.1078652246 3.1224594153 3.1224594153 3.1224594153 3.1078652246 3.1078652246 3.0932710339 3.0786768432 3.0786768432 
3.0786768432 3.0786768432 3.0932710339 3.1078652246 3.1224594153 3.1224594153 3.1078652246 3.0932710339 3.0786768432 
3.0786768432 3.0786768432 3.0786768432 3.0786768432 3.0786768432 3.0786768432 3.0786768432 3.0786768432 3.0786768432 
3.0786768432 3.0932710339 3.1078652246 3.1224594153 3.1224594153 3.1224594153 3.1224594153 3.1078652246 3.0932710339 
3.0786768432 3.0786768432 3.0786768432 3.0786768432 3.0786768432 3.0786768432 3.0786768432 3.0932710339 3.1078652246 
3.1224594153 3.1224594153 3.1078652246 3.0932710339 3.0786768432 3.0786768432 3.0786768432 3.0786768432 3.0786768432 
3.0786768432 3.0786768432 3.0932710339 3.0932710339 3.1078652246 3.1224594153 3.1224594153 3.1224594153 3.1078652246 
3.0932710339 3.0786768432 3.0786768432 3.0786768432 3.0786768432 3.0786768432 3.0786768432 3.0932710339 3.1078652246 
3.1224594153 3.1224594153 3.1078652246 3.1078652246 3.0932710339 3.0786768432 3.0786768432 3.0786768432 3.0786768432 
3.0786768432 3.0786768432 3.0932710339 3.1078652246 3.1078652246 3.1224594153 3.1224594153 3.1224594153 3.1078652246 
3.0932710339 3.0786768432 3.0786768432 3.0786768432 3.0786768432 3.0786768432 3.0786768432 3.0932710339 3.1078652246 
3.1224594153 3.137053606 3.137053606 3.137053606 3.137053606 3.1224594153 3.1078652246 3.0932710339 3.0786768432 
3.0786768432 3.0786768432 3.0786768432 3.0932710339 3.1078652246 3.1224594153 3.137053606 3.137053606 3.137053606 
3.137053606 3.1224594153 3.1078652246 3.0932710339 3.0786768432 3.0786768432 3.0786768432 3.0786768432 3.0786768432 
3.0786768432 3.0932710339 3.1078652246 3.1224594153 3.1224594153 3.137053606 3.137053606 3.137053606 3.137053606 
3.1224594153 3.1224594153 3.1078652246 3.0932710339 3.0786768432 3.0786768432 3.0786768432 3.0786768432 3.0786768432 
3.0786768432 3.0786768432 3.0932710339 3.1078652246 3.1224594153 3.137053606 3.137053606 3.137053606 3.1224594153 
3.1078652246 3.0932710339 3.0786768432 3.0786768432 3.0786768432 3.0786768432 3.0786768432 3.0932710339 3.1078652246 
3.1224594153 3.137053606 3.137053606 3.1224594153 3.1078652246 3.1078652246 3.0932710339 3.0786768432 3.0786768432 
3.0786768432 3.0786768432 3.0786768432 3.0786768432 3.0932710339 3.1078652246 3.1224594153 3.137053606 3.137053606 
3.137053606 3.137053606 3.1224594153 3.1078652246 3.0932710339 3.0786768432 3.0786768432 3.0786768432 3.0786768432 
3.0786768432 3.0932710339 3.1078652246 3.1224594153 3.137053606 3.137053606 3.1224594153 3.1224594153 3.1078652246 
3.0932710339 3.0786768432 3.0786768432 3.0786768432 3.0786768432 3.0786768432 3.0786768432 3.0932710339 3.1078652246 
3.1224594153 3.1224594153 3.137053606 3.137053606 3.1224594153 3.1078652246 3.0932710339 3.0786768432 3.0786768432 
3.0786768432 3.0786768432 3.0786768432 3.0932710339 3.1078652246 3.1224594153 3.137053606 3.137053606 3.137053606 
3.137053606 3.1224594153 3.1078652246 3.0932710339 3.0786768432 3.0786768432 3.0786768432 3.0786768432 3.0786768432 
3.0932710339 3.1078652246 3.1224594153 3.137053606 3.137053606 3.1224594153 3.1078652246 3.0932710339 3.0786768432 
3.0786768432 3.0786768432 3.0786768432 3.0932710339 3.1078652246 3.1224594153 3.137053606 3.137053606 3.1224594153 
3.1078652246 3.0932710339 3.0786768432 3.0786768432 3.0786768432 3.0786768432 3.0786768432 3.0786768432 3.0932710339 
3.1078652246 3.1078652246 3.1224594153 3.137053606 3.137053606 3.1516477967 3.1516477967 3.1516477967 3.1516477967 
3.137053606 3.1224594153 3.1224594153 3.1078652246 3.0932710339 3.0786768432 3.0786768432 3.0786768432 3.0786768432 
3.0786768432 3.0932710339 3.1078652246 3.1224594153 3.137053606 3.1516477967 3.1516477967 3.1516477967 3.1516477967 
3.137053606 3.137053606 3.1224594153 3.1078652246 3.1078652246 3.0932710339 3.0786768432 3.0786768432 3.0786768432 
3.0786768432 3.0932710339 3.1078652246 3.1224594153 3.1224594153 3.137053606 3.1516477967 3.1516477967 3.1516477967 
3.137053606 3.1224594153 3.1078652246 3.0932710339 3.0786768432 3.0786768432 3.0786768432 3.0786768432 3.0932710339 
3.1078652246 3.1224594153 3.137053606 3.137053606 3.1516477967 3.1516477967 3.1516477967 3.1516477967 3.137053606 
3.1224594153 3.1078652246 3.0932710339 3.0786768432 3.0786768432 3.0786768432 3.0786768432 3.0786768432 3.0932710339 
3.0932710339 3.1078652246 3.1224594153 3.137053606 3.1516477967 3.1516477967 3.137053606 3.1224594153 3.1078652246 
3.0932710339 3.0786768432 3.0786768432 3.0786768432 3.0786768432 3.0640826525 3.0640826525 3.0640826525 3.0640826525 
3.0640826525 3.0786768432 3.0932710339 3.1078652246 3.1224594153 3.137053606 3.1516477967 3.1516477967 3.1516477967 
3.1516477967 3.137053606 3.1224594153 3.1078652246 3.0932710339 3.0786768432 3.0786768432 3.0786768432 3.0786768432 
3.0640826525 3.0640826525 3.0640826525 3.0640826525 3.0640826525 3.0640826525 3.0786768432 3.0932710339 3.1078652246 
3.1224594153 3.1224594153 3.137053606 3.137053606 3.1516477967 3.1516477967 3.137053606 3.137053606 3.1224594153 
3.1078652246 3.0932710339 3.0786768432 3.0786768432 3.0786768432 3.0786768432 3.0640826525 3.0640826525 3.0640826525 
3.0786768432 3.0932710339 3.0932710339 3.1078652246 3.1224594153 3.137053606 3.1516477967 3.1516477967 3.1516477967 
3.137053606 3.1224594153 3.1078652246 3.0932710339 3.0786768432 3.0786768432 3.0786768432 3.0640826525 3.0640826525 
3.0786768432 3.0932710339 3.1078652246 3.1224594153 3.137053606 3.1516477967 3.1516477967 3.137053606 3.1224594153 
3.1078652246 3.0932710339 3.0786768432 3.0786768432 3.0786768432 3.0640826525 3.0640826525 3.0640826525 3.0640826525 
3.0786768432 3.0932710339 3.1078652246 3.1224594153 3.137053606 3.137053606 3.1516477967 3.1516477967 3.1516477967 
3.137053606 3.1224594153 3.1078652246 3.0932710339 3.0786768432 3.0786768432 3.0786768432 3.0786768432 3.0786768432 
3.0640826525 3.0640826525 3.0786768432 3.0932710339 3.1078652246 3.1224594153 3.137053606 3.1516477967 3.1662419875 
3.1662419875 3.1662419875 3.1662419875 3.1662419875 3.1516477967 3.137053606 3.1224594153 3.1078652246 3.0932710339 
3.0786768432 3.0786768432 3.0786768432 3.0640826525 3.0640826525 3.0786768432 3.0932710339 3.1078652246 3.1224594153 
3.137053606 3.1516477967 3.1662419875 3.1662419875 3.1662419875 3.1516477967 3.137053606 3.1224594153 3.1078652246 
3.1078652246 3.0932710339 3.0786768432 3.0786768432 3.0786768432 3.0640826525 3.0494884618 3.0494884618 3.0494884618 
3.0494884618 3.0640826525 3.0786768432 3.0786768432 3.0932710339 3.1078652246 3.1078652246 3.1224594153 3.1224594153 
3.137053606 3.1516477967 3.1516477967 3.1662419875 3.1662419875 3.1662419875 3.1662419875 3.1516477967 3.137053606 
3.1224594153 3.1078652246 3.0932710339 3.0786768432 3.0786768432 3.0786768432 3.0786768432 3.0786768432 3.0786768432 
3.0786768432 3.0786768432 3.0640826525 3.0640826525 3.0494884618 3.0494884618 3.0494884618 3.0494884618 3.0640826525 
3.0640826525 3.0786768432 3.0932710339 3.1078652246 3.1224594153 3.137053606 3.137053606 3.1516477967 3.1662419875 
3.1662419875 3.1516477967 3.137053606 3.1224594153 3.1078652246 3.0932710339 3.0932710339 3.0786768432 3.0640826525 
3.0640826525 3.0640826525 3.0786768432 3.0786768432 3.0786768432 3.0786768432 3.0640826525 3.0494884618 3.0494884618 
3.0494884618 3.0640826525 3.0786768432 3.0932710339 3.1078652246 3.1224594153 3.137053606 3.1516477967 3.1662419875 
3.1662419875 3.1662419875 3.1516477967 3.137053606 3.1224594153 3.1078652246 3.0932710339 3.0786768432 3.0786768432 
3.0640826525 3.0640826525 3.0640826525 3.0640826525 3.0786768432 3.0786768432 3.0786768432 3.0640826525 3.0494884618 
3.0494884618 3.0494884618 3.0640826525 3.0786768432 3.0932710339 3.1078652246 3.1224594153 3.137053606 3.1516477967 
3.1516477967 3.1662419875 3.1662419875 3.1662419875 3.1516477967 3.137053606 3.137053606 3.1224594153 3.1078652246 
3.0932710339 3.0786768432 3.0640826525 3.0640826525 3.0640826525 3.0640826525 3.0786768432 3.0786768432 3.0640826525 
3.0494884618 3.0348942711 3.0348942711 3.0348942711 3.0348942711 3.0494884618 3.0640826525 3.0786768432 3.0932710339 
3.1078652246 3.1224594153 3.137053606 3.1516477967 3.1662419875 2.9619233175 2.9619233175 2.9765175082 2.9765175082 
2.991111699 2.991111699 3.0057058897 3.0057058897 3.0203000804 3.0203000804 3.0348942711 3.0348942711 3.0494884618 
3.0494884618 3.0640826525 3.0640826525 3.0786768432 3.0786768432 3.0932710339 3.0932710339 3.1078652246 3.1078652246 
3.1224594153 3.1224594153 3.137053606 3.137053606 3.1516477967 3.1516477967 3.1662419875 3.1662419875 2.9619233175 
2.9765175082 2.991111699 3.0057058897 3.0203000804 3.0348942711 3.0494884618 3.0640826525 3.0786768432 3.0932710339 
3.1078652246 3.1224594153 3.137053606 3.1516477967 3.1662419875 2.9619233175 2.9765175082 2.991111699 3.0057058897 
3.0203000804 3.0348942711 3.0494884618 3.0640826525 3.0786768432 3.0932710339 3.1078652246 3.1224594153 3.137053606 
3.1516477967 3.1662419875 2.9619233175 2.9765175082 2.991111699 3.0057058897 3.0203000804 3.0348942711 3.0494884618 
3.0640826525 3.0786768432 3.0932710339 3.1078652246 3.1224594153 3.137053606 3.1516477967 3.1662419875 2.9619233175 
2.9765175082 2.991111699 3.0057058897 3.0203000804 3.0348942711 3.0494884618 3.0640826525 3.0786768432 3.0932710339 
3.1078652246 3.1224594153 3.137053606 3.1516477967 3.1662419875 2.9619233175 2.9765175082 2.991111699 3.0057058897 
3.0203000804 3.0348942711 3.0494884618 3.0640826525 3.0786768432 3.0932710339 3.1078652246 3.1224594153 3.137053606 
3.1516477967 3.1662419875 2.9619233175 2.9765175082 2.991111699 3.0057058897 3.0203000804 3.0348942711 3.0494884618 
3.0640826525 3.0786768432 3.0932710339 3.1078652246 3.1224594153 3.137053606 3.1516477967 3.1516477967 3.137053606 
3.1224594153 3.1078652246 3.0932710339 3.0786768432 3.0640826525 3.0640826525 3.0640826525 3.0786768432 3.0786768432 
3.0786768432 3.0640826525 3.0494884618 3.0348942711 3.0348942711 3.0348942711 3.0494884618 3.0494884618 3.0640826525 
3.0786768432 3.0932710339 3.1078652246 3.1224594153 3.1224594153 3.137053606 3.137053606 2.9619233175 2.9619233175 
2.9765175082 2.9765175082 2.991111699 2.991111699 3.0057058897 3.0057058897 3.0203000804 3.0203000804 3.0348942711 
3.0348942711 3.0494884618 3.0494884618 3.0640826525 3.0640826525 3.0786768432 3.0786768432 3.0932710339 3.0932710339 
3.1078652246 3.1078652246 3.1224594153 3.1224594153 3.137053606 3.137053606 2.9619233175 2.9765175082 2.991111699 
3.0057058897 3.0203000804 3.0348942711 3.0494884618 3.0640826525 3.0786768432 3.0932710339 3.1078652246 3.1224594153 
3.137053606 3.1516477967 2.9619233175 2.9765175082 2.991111699 3.0057058897 3.0203000804 3.0348942711 3.0494884618 
3.0640826525 3.0786768432 3.0932710339 3.1078652246 3.1224594153 3.137053606 3.1516477967 2.9619233175 2.9765175082 
2.991111699 3.0057058897 3.0203000804 3.0348942711 3.0494884618 3.0640826525 3.0786768432 3.0932710339 3.1078652246 
3.1224594153 3.137053606 3.1516477967 2.9619233175 2.9765175082 2.991111699 3.0057058897 3.0203000804 3.0348942711 
3.0494884618 3.0640826525 3.0786768432 3.0932710339 3.1078652246 3.1224594153 3.137053606 3.1516477967 3.1662419875 
2.9619233175 2.9765175082 2.991111699 3.0057058897 3.0203000804 3.0348942711 3.0494884618 3.0640826525 3.0786768432 
3.0932710339 3.1078652246 3.1224594153 3.137053606 3.1516477967 3.1662419875 2.9619233175 2.9765175082 2.991111699 
3.0057058897 3.0203000804 3.0348942711 3.0494884618 3.0640826525 3.0786768432 3.0932710339 3.1078652246 3.1224594153 
3.137053606 3.1516477967 2.9619233175 2.9765175082 2.991111699 3.0057058897 3.0203000804 3.0348942711 3.0494884618 
3.0640826525 3.0786768432 3.0932710339 3.1078652246 3.1224594153 3.137053606 3.1516477967 2.9619233175 2.9765175082 
2.991111699 3.0057058897 3.0203000804 3.0348942711 3.0494884618 3.0640826525 3.0786768432 3.0932710339 3.1078652246 
3.1224594153 3.137053606 2.9619233175 2.9765175082 2.991111699 3.0057058897 3.0203000804 3.0348942711 3.0494884618 
3.0640826525 3.0786768432 3.0932710339 3.1078652246 3.1224594153 3.137053606 2.9619233175 2.9765175082 2.991111699 
3.0057058897 3.0203000804 3.0348942711 3.0494884618 3.0640826525 3.0786768432 3.0932710339 3.1078652246 3.1224594153 
3.137053606 2.9619233175 2.9765175082 2.991111699 3.0057058897 3.0203000804 3.0348942711 3.0494884618 3.0640826525 