# vtk DataFile Version 4.2
vtk output
ASCII
DATASET POLYDATA
POINTS 6448 float
2521.61 -2925.14 5800 2522.86 -2928.59 5800 2533.06 -2925.14 5800 
2516.9 -2912.14 5800 2551.86 -2921.66 5800 2571.68 -2912.14 5800 
2512.19 -2899.14 5800 2580.87 -2907.72 5800 2598.71 -2899.13 5800 
2507.48 -2886.14 5800 2609.87 -2893.77 5800 2625.75 -2886.13 5800 
2502.77 -2873.13 5800 2638.87 -2879.82 5800 2652.79 -2873.13 5800 
2498.06 -2860.13 5800 2667.87 -2865.88 5800 2679.78 -2860.13 5800 
2493.35 -2847.13 5800 2493.87 -2848.56 5800 2694.33 -2847.13 5800 
2488.64 -2834.13 5800 2696.87 -2843.5 5800 2701.07 -2834.12 5800 
2483.93 -2821.13 5800 2706.89 -2821.12 5800 2479.22 -2808.13 5800 
2712.71 -2808.12 5800 2474.51 -2795.13 5800 2718.53 -2795.12 5800 
2469.8 -2782.13 5800 2724.35 -2782.12 5800 2465.09 -2769.13 5800 
2725.88 -2778.7 5800 2730.17 -2769.12 5800 2460.38 -2756.13 5800 
2464.87 -2768.54 5800 2735.99 -2756.12 5800 2454.74 -2743.13 5800 
2741.81 -2743.12 5800 2439.5 -2730.13 5800 2747.63 -2730.12 5800 
2421.88 -2717.13 5800 2435.87 -2727.45 5800 2753.45 -2717.11 5800 
2404.26 -2704.13 5800 2406.87 -2706.05 5800 2754.89 -2713.91 5800 
2759.27 -2704.11 5800 2386.64 -2691.12 5800 2765.09 -2691.11 5800 
2369.03 -2678.12 5800 2377.88 -2684.65 5800 2770.91 -2678.11 5800 
2351.41 -2665.12 5800 2776.73 -2665.11 5800 2333.79 -2652.12 5800 
2348.88 -2663.26 5800 2782.55 -2652.11 5800 2316.17 -2639.12 5800 
2319.88 -2641.86 5800 2783.89 -2649.11 5800 2788.37 -2639.11 5800 
2298.55 -2626.12 5800 2794.19 -2626.11 5800 2280.94 -2613.12 5800 
2290.88 -2620.46 5800 2805.39 -2613.1 5800 2263.32 -2600.12 5800 
2812.9 -2606.03 5800 2819.18 -2600.1 5800 2244.74 -2587.12 5800 
2261.88 -2599.06 5800 2832.97 -2587.1 5800 2224.46 -2574.12 5800 
2232.88 -2579.29 5800 2841.9 -2578.68 5800 2847.01 -2574.1 5800 
2203.27 -2561.12 5800 2203.88 -2561.49 5800 2862.34 -2561.1 5800 
2182.09 -2548.12 5800 2870.9 -2554.05 5800 2877.32 -2548.1 5800 
2160.9 -2535.12 5800 2174.88 -2543.7 5800 2891.78 -2535.1 5800 
2139.71 -2522.12 5800 2145.88 -2525.9 5800 2899.91 -2528.04 5800 
2906.18 -2522.09 5800 2118.52 -2509.12 5800 2919.9 -2509.09 5800 
2097.34 -2496.12 5800 2116.88 -2508.11 5800 2928.91 -2500.56 5800 
2933.62 -2496.09 5800 2076.15 -2483.12 5800 2087.88 -2490.32 5800 
2947.34 -2483.09 5800 2057.51 -2470.12 5800 2058.88 -2472.52 5800 
2957.91 -2473.07 5800 2961.06 -2470.09 5800 2051.99 -2457.12 5800 
2974.78 -2457.09 5800 2050.94 -2444.12 5800 2986.92 -2445.58 5800 
2988.5 -2444.08 5800 2051.34 -2431.12 5800 3002.21 -2431.08 5800 
2051.74 -2418.12 5800 3015.92 -2418.1 5800 3015.93 -2418.08 5800 
2052.14 -2405.11 5800 3029.65 -2405.08 5800 2052.54 -2392.11 5800 
3043.37 -2392.08 5800 2052.94 -2379.11 5800 3044.92 -2390.61 5800 
3057.09 -2379.08 5800 2053.35 -2366.11 5800 3070.81 -2366.08 5800 
2053.75 -2353.11 5800 3073.92 -2363.12 5800 3084.53 -2353.07 5800 
2054.15 -2340.11 5800 3098.25 -2340.07 5800 2054.55 -2327.11 5800 
3102.93 -2335.64 5800 3111.97 -2327.07 5800 2054.95 -2314.11 5800 
3125.68 -2314.07 5800 2055.35 -2301.11 5800 3131.93 -2308.15 5800 
3139.4 -2301.07 5800 2055.76 -2288.1 5800 3153.12 -2288.07 5800 
2056.16 -2275.1 5800 3160.93 -2280.1 5800 3163.7 -2275.07 5800 
2056.56 -2262.1 5800 3165.26 -2262.06 5800 2056.96 -2249.1 5800 
3166.82 -2249.06 5800 2057.36 -2236.1 5800 3168.38 -2236.06 5800 
2057.76 -2223.1 5800 3169.94 -2223.06 5800 2058.17 -2210.1 5800 
3171.5 -2210.06 5800 2058.57 -2197.1 5800 3173.06 -2197.06 5800 
2058.9 -2186.25 5800 2058.97 -2184.1 5800 3174.62 -2184.06 5800 
2059.4 -2171.1 5800 3176.18 -2171.06 5800 2059.82 -2158.09 5800 
3177.74 -2158.06 5800 2060.25 -2145.09 5800 3179.3 -2145.06 5800 
2060.68 -2132.09 5800 3180.86 -2132.05 5800 2061.11 -2119.09 5800 
3182.42 -2119.05 5800 2061.54 -2106.09 5800 3183.98 -2106.05 5800 
2061.97 -2093.09 5800 3185.54 -2093.05 5800 2062.41 -2080.09 5800 
3187.1 -2080.05 5800 2062.85 -2067.09 5800 3188.66 -2067.05 5800 
2063.28 -2054.09 5800 3189.95 -2056.25 5800 3190.22 -2054.05 5800 
2062.4 -2041.09 5800 3191.78 -2041.05 5800 2059.51 -2028.08 5800 
3193.33 -2028.05 5800 2056.98 -2015.08 5800 2058.92 -2025.25 5800 
3194.89 -2015.04 5800 2054.44 -2002.08 5800 3196.45 -2002.04 5800 
2051.84 -1989.08 5800 3198.01 -1989.04 5800 2049.18 -1976.08 5800 
3199.32 -1976.04 5800 2046.45 -1963.08 5800 3200.52 -1963.04 5800 
2043.66 -1950.08 5800 3201.55 -1950.04 5800 2040.78 -1937.08 5800 
3202.58 -1937.04 5800 2037.84 -1924.08 5800 3203.61 -1924.04 5800 
2035.1 -1911.08 5800 3204.64 -1911.04 5800 2032.39 -1898.08 5800 
3205.67 -1898.04 5800 2029.7 -1885.07 5800 2029.92 -1886.25 5800 
3206.7 -1885.03 5800 2027.14 -1872.07 5800 3207.73 -1872.03 5800 
2024.51 -1859.07 5800 3208.77 -1859.03 5800 2021.83 -1846.07 5800 
3209.8 -1846.03 5800 2019.07 -1833.07 5800 3210.83 -1833.03 5800 
2016.24 -1820.07 5800 3211.86 -1820.03 5800 2013.41 -1807.07 5800 
3212.89 -1807.03 5800 2010.7 -1794.07 5800 3213.92 -1794.03 5800 
2007.99 -1781.07 5800 3214.95 -1781.03 5800 2005.27 -1768.07 5800 
3215.98 -1768.03 5800 2002.56 -1755.07 5800 3217.01 -1755.02 5800 
1999.9 -1742.06 5800 2000.93 -1747.26 5800 3218.04 -1742.02 5800 
1997.25 -1729.06 5800 3218.98 -1730.21 5800 3219.07 -1729.02 5800 
1994.53 -1716.06 5800 3220.1 -1716.02 5800 1993.88 -1703.06 5800 
3221.13 -1703.02 5800 1993.75 -1690.06 5800 3222.16 -1690.02 5800 
1994.36 -1677.06 5800 3223.2 -1677.02 5800 1998.18 -1664.06 5800 
3224.23 -1664.02 5800 2000.94 -1654.63 5800 2002.11 -1651.06 5800 
3225.26 -1651.02 5800 2005.88 -1638.06 5800 3226.29 -1638.01 5800 
2009.75 -1625.06 5800 3227.32 -1625.01 5800 2013.62 -1612.05 5800 
3232.76 -1612.01 5800 2017.49 -1599.05 5800 3239.32 -1599.01 5800 
2021.36 -1586.05 5800 3247.99 -1586.35 5800 3248.27 -1586.01 5800 
2025.23 -1573.05 5800 3256.55 -1573.01 5800 2029.1 -1560.05 5800 
3258.87 -1560.01 5800 2029.95 -1557.19 5800 2032.97 -1547.05 5800 
3260.48 -1547.01 5800 2036.84 -1534.05 5800 3262.45 -1534.01 5800 
2040.71 -1521.05 5800 3262.98 -1521 5800 2044.62 -1508.05 5800 
3263.39 -1508 5800 2046.31 -1495.04 5800 3263.81 -1495 5800 
2047.35 -1482.04 5800 3264.22 -1482 5800 2048.39 -1469.04 5800 
3264.63 -1469 5800 2049.43 -1456.04 5800 3265.04 -1456 5800 
2050.47 -1443.04 5800 3265.45 -1443 5800 2051.55 -1430.04 5800 
3265.86 -1430 5800 2052.71 -1417.04 5800 3266.27 -1417 5800 
2053.82 -1404.04 5800 3266.68 -1404 5800 2054.89 -1391.04 5800 
3267.09 -1390.99 5800 2056.33 -1378.04 5800 3267.5 -1377.99 5800 
2057.84 -1365.03 5800 3267.91 -1364.99 5800 2058.97 -1355.31 5800 
2059.35 -1352.03 5800 3268.32 -1351.99 5800 2060.65 -1339.03 5800 
3268.73 -1338.99 5800 2061.29 -1326.03 5800 3269.14 -1325.99 5800 
2061.82 -1313.03 5800 3269.55 -1312.99 5800 2062.27 -1300.03 5800 
3269.97 -1299.99 5800 2062.66 -1287.03 5800 3270.38 -1286.99 5800 
2062.99 -1274.03 5800 3270.79 -1273.99 5800 2063.28 -1261.03 5800 
3271.2 -1260.98 5800 2063.54 -1248.02 5800 3271.61 -1247.98 5800 
2063.73 -1235.02 5800 3272.02 -1234.98 5800 2062.59 -1222.02 5800 
3272.43 -1221.98 5800 2061.45 -1209.02 5800 3272.84 -1208.98 5800 
2060.31 -1196.02 5800 3273.25 -1195.98 5800 2059.16 -1183.02 5800 
3273.66 -1182.98 5800 2057.76 -1170.02 5800 2058.98 -1180.93 5800 
3274.09 -1169.98 5800 2056.48 -1157.02 5800 3274.52 -1156.98 5800 
2055.37 -1144.02 5800 3274.94 -1143.98 5800 2054.38 -1131.02 5800 
3275.35 -1130.97 5800 2053.46 -1118.02 5800 3275.76 -1117.97 5800 
2052.31 -1105.01 5800 3276.25 -1104.97 5800 2051.17 -1092.01 5800 
3276.68 -1091.97 5800 2049.35 -1079.01 5800 3277.03 -1079.24 5800 
3277.04 -1078.97 5800 2046.24 -1066.01 5800 3277.67 -1065.97 5800 
2045.85 -1053.01 5800 3278.3 -1052.97 5800 2045.58 -1040.01 5800 
3278.91 -1039.97 5800 2046.87 -1027.01 5800 3279.51 -1026.97 5800 
2048.95 -1014.01 5800 3280.1 -1013.96 5800 2051.04 -1001.01 5800 
3280.68 -1000.96 5800 2053.12 -988.005 5800 3281.29 -987.963 5800 
2055.21 -975.004 5800 3281.9 -974.962 5800 2057.29 -962.003 5800 
3282.5 -961.961 5800 2059 -951.37 5800 2059.38 -949.002 5800 
3282.61 -948.96 5800 2061.46 -936.001 5800 2549.7 -935.984 5800 
2552.02 -937.812 5800 2581.02 -945.344 5800 2601.24 -935.982 5800 
3282.42 -935.959 5800 2063.55 -923 5800 2533.27 -922.984 5800 
2610.02 -931.916 5800 2639.02 -923.816 5800 2668.02 -923.096 5800 
2673.51 -922.979 5800 3282.28 -922.958 5800 2065.63 -909.999 5800 
2515.32 -909.983 5800 2523.02 -915.6 5800 2697.02 -922.479 5800 
2726.02 -921.862 5800 2755.02 -910.205 5800 2755.14 -909.975 5800 
3280.19 -909.957 5800 2067.72 -896.998 5800 2497.28 -896.983 5800 
2761.75 -896.974 5800 3277.56 -896.956 5800 2069.8 -883.997 5800 
2478.84 -883.982 5800 2494.02 -894.624 5800 2768.35 -883.973 5800 
3277.04 -894.436 5800 3274.91 -883.955 5800 2071.89 -870.996 5800 
2463.05 -870.982 5800 2465.02 -872.152 5800 2774.96 -870.971 5800 
3272.28 -870.954 5800 2073.97 -857.995 5800 2442.26 -857.982 5800 
2781.56 -857.97 5800 3269.64 -857.953 5800 2076.06 -844.993 5800 
2427.76 -844.981 5800 2436.02 -852.667 5800 2784.03 -853.114 5800 
2788.17 -844.969 5800 3267 -844.952 5800 2078.13 -831.992 5800 
2415.99 -831.981 5800 2794.77 -831.968 5800 3264.37 -831.951 5800 
2080.19 -818.991 5800 2406.27 -818.98 5800 2407.02 -820.267 5800 
2801.38 -818.966 5800 3261.73 -818.951 5800 2082.26 -805.99 5800 
2397.03 -805.979 5800 2807.98 -805.965 5800 3259.09 -805.95 5800 
2084.25 -792.989 5800 2387.78 -792.979 5800 2813.04 -798.713 5800 
2817.18 -792.964 5800 3256.19 -792.949 5800 2086.24 -779.988 5800 
2378.53 -779.978 5800 2830 -779.962 5800 3252.88 -779.948 5800 
2088.01 -768.437 5800 2088.23 -766.987 5800 2369.3 -766.977 5800 
2378.02 -779.244 5800 2842.04 -768.367 5800 2843.61 -766.961 5800 
3249.51 -766.947 5800 2090 -753.986 5800 2360.06 -753.977 5800 
2858.19 -753.959 5800 3248.05 -761.333 5800 3246.39 -753.946 5800 
2090.17 -740.985 5800 2350.82 -740.976 5800 2871.04 -742.494 5800 
2872.25 -740.958 5800 3243.88 -740.945 5800 2088.62 -727.984 5800 
2341.58 -727.975 5800 2349.02 -738.447 5800 2881.21 -727.957 5800 
[...]
POINT_DATA 6448
SCALARS Pressure double
LOOKUP_TABLE default
3.0932710339 3.0932710339 3.0932710339 3.0932710339 3.0932710339 3.0932710339 3.0932710339 3.0932710339 3.0932710339 
3.0932710339 3.0932710339 3.0932710339 3.0932710339 3.0932710339 3.0932710339 3.0932710339 3.0932710339 3.0932710339 
3.0932710339 3.0932710339 3.0932710339 3.0932710339 3.0932710339 3.0932710339 3.0932710339 3.0932710339 3.0932710339 
3.0932710339 3.0932710339 3.0932710339 3.0932710339 3.0932710339 3.0932710339 3.0932710339 3.0932710339 3.0932710339 
3.0932710339 3.0932710339 3.0932710339 3.0932710339 3.0932710339 3.0932710339 3.0932710339 3.0932710339 3.0932710339 
3.0932710339 3.0932710339 3.0932710339 3.0932710339 3.0932710339 3.0932710339 3.0932710339 3.0932710339 3.0932710339 
3.0932710339 3.0932710339 3.0932710339 3.0932710339 3.0932710339 3.0932710339 3.0932710339 3.0932710339 3.0932710339 
3.0932710339 3.0932710339 3.0932710339 3.0932710339 3.0932710339 3.0932710339 3.0932710339 3.0932710339 3.0932710339 
3.0932710339 3.0932710339 3.0932710339 3.0932710339 3.0932710339 3.0932710339 3.0932710339 3.0932710339 3.0932710339 
3.0932710339 3.0932710339 3.0932710339 3.0932710339 3.0932710339 3.0932710339 3.0932710339 3.0932710339 3.0932710339 
3.0932710339 3.0932710339 3.0932710339 3.0932710339 3.0932710339 3.0932710339 3.0932710339 3.0932710339 3.0932710339 
3.0932710339 3.0932710339 3.0932710339 3.0932710339 3.0932710339 3.0932710339 3.0932710339 3.0932710339 3.0932710339 
3.0932710339 3.0932710339 3.0932710339 3.0932710339 3.0932710339 3.0932710339 3.0932710339 3.0932710339 3.0932710339 
3.0932710339 3.0932710339 3.0932710339 3.0932710339 3.0932710339 3.0932710339 3.0932710339 3.0932710339 3.0932710339 
3.0932710339 3.0932710339 3.0932710339 3.0932710339 3.0932710339 3.0932710339 3.0932710339 3.0932710339 3.0932710339 
3.0932710339 3.0932710339 3.0932710339 3.0932710339 3.0932710339 3.0932710339 3.0932710339 3.0932710339 3.0932710339 
3.0932710339 3.0932710339 3.0932710339 3.0932710339 3.0932710339 3.0932710339 3.0932710339 3.0932710339 3.0932710339 
3.0932710339 3.0932710339 3.0932710339 3.0932710339 3.0932710339 3.0932710339 3.0932710339 3.0932710339 3.0932710339 
3.0932710339 3.0932710339 3.0932710339 3.0932710339 3.0932710339 3.0932710339 3.0932710339 3.0932710339 3.0932710339 
3.0932710339 3.0932710339 3.0932710339 3.0932710339 3.0932710339 3.0932710339 3.0932710339 3.0932710339 3.0932710339 
3.0932710339 3.0932710339 3.0932710339 3.0932710339 3.0932710339 3.0932710339 3.0932710339 3.0932710339 3.0932710339 
3.0932710339 3.0932710339 3.0932710339 3.0932710339 3.0932710339 3.0932710339 3.0932710339 3.0932710339 3.0932710339 
3.0932710339 3.0932710339 3.0932710339 3.0932710339 3.0932710339 3.0932710339 3.0932710339 3.0932710339 3.0932710339 
3.0932710339 3.0932710339 3.0932710339 3.0932710339 3.0932710339 3.0932710339 3.0932710339 3.0932710339 3.0932710339 
3.0932710339 3.0932710339 3.0932710339 3.0932710339 3.0932710339 3.0932710339 3.0932710339 3.0932710339 3.0932710339 
3.0932710339 3.0932710339 3.0932710339 3.0932710339 3.0932710339 3.0932710339 3.0932710339 3.0932710339 3.0932710339 
3.0932710339 3.0932710339 3.0932710339 3.0932710339 3.0932710339 3.0932710339 3.0932710339 3.0932710339 3.0932710339 
3.0932710339 3.0932710339 3.0932710339 3.0932710339 3.0932710339 3.0932710339 3.0932710339 3.0932710339 3.0932710339 
3.0932710339 3.0932710339 3.0932710339 3.0932710339 3.0932710339 3.0932710339 3.0932710339 3.0932710339 3.0932710339 
3.0932710339 3.0932710339 3.0932710339 3.0932710339 3.0932710339 3.0932710339 3.0932710339 3.0932710339 3.0932710339 
3.0932710339 3.0932710339 3.0932710339 3.0932710339 3.0932710339 3.0932710339 3.0932710339 3.0932710339 3.0932710339 
3.0932710339 3.0932710339 3.0932710339 3.0932710339 3.0932710339 3.0932710339 3.0932710339 3.0932710339 3.0932710339 
3.0932710339 3.0932710339 3.0932710339 3.0932710339 3.0932710339 3.0932710339 3.0932710339 3.0932710339 3.0932710339 
3.0932710339 3.0932710339 3.0932710339 3.0932710339 3.0932710339 3.0932710339 3.0932710339 3.0932710339 3.0932710339 
3.0932710339 3.0932710339 3.0932710339 3.0932710339 3.0932710339 3.0932710339 3.0932710339 3.0932710339 3.0932710339 
3.0932710339 3.0932710339 3.0932710339 3.0932710339 3.0932710339 3.0932710339 3.0932710339 3.0932710339 3.0932710339 
3.0932710339 3.0932710339 3.0932710339 3.0932710339 3.0932710339 3.0932710339 3.0932710339 3.0932710339 3.0932710339 
3.0932710339 3.0932710339 3.0932710339 3.0932710339 3.0932710339 3.0932710339 3.0932710339 3.0932710339 3.0932710339 
3.0932710339 3.0932710339 3.0932710339 3.0932710339 3.0932710339 3.0932710339 3.0932710339 3.0932710339 3.0932710339 
3.0932710339 3.0932710339 3.0932710339 3.0932710339 3.0932710339 3.0932710339 3.0932710339 3.0932710339 3.1078652246 
3.1078652246 3.1078652246 3.1078652246 3.0932710339 3.0932710339 3.1078652246 3.1078652246 3.1078652246 3.1078652246 
3.1078652246 3.0932710339 3.0932710339 3.1078652246 3.1078652246 3.1078652246 3.1078652246 3.1078652246 3.1078652246 
3.0932710339 3.0932710339 3.1078652246 3.1078652246 3.0932710339 3.0932710339 3.1078652246 3.1078652246 3.1078652246 
3.0932710339 3.0932710339 3.0932710339 3.1078652246 3.1078652246 3.1078652246 3.0932710339 3.0932710339 3.1078652246 
3.1078652246 3.0932710339 3.0932710339 3.1078652246 3.1078652246 3.1078652246 3.1078652246 3.0932710339 3.0932710339 
3.1078652246 3.1078652246 3.0932710339 3.0932710339 3.1078652246 3.1078652246 3.1078652246 3.0932710339 3.0932710339 
3.1078652246 3.1078652246 3.0932710339 3.0932710339 3.1078652246 3.1078652246 3.1078652246 3.0932710339 3.0932710339 
3.1078652246 3.1078652246 3.0932710339 3.0932710339 3.0932710339 3.1078652246 3.1078652246 3.1078652246 3.1078652246 
3.0932710339 3.0932710339 3.1078652246 3.1078652246 3.0932710339 3.0932710339 3.0932710339 3.1078652246 3.1078652246 
3.1078652246 3.0932710339 3.0932710339 3.1078652246 3.1078652246 3.1078652246 3.0932710339 3.0932710339 3.0932710339 
3.1078652246 3.1078652246 3.0932710339 3.0932710339 3.1078652246 3.1078652246 3.0932710339 3.0932710339 3.1078652246 
3.1078652246 3.1078652246 3.0932710339 3.0932710339 3.0932710339 3.1078652246 3.1078652246 3.1078652246 3.0932710339 
3.0932710339 3.1078652246 3.1078652246 3.0932710339 3.0932710339 3.1078652246 3.1078652246 3.0932710339 3.0932710339 
3.1078652246 3.1078652246 3.0932710339 3.0932710339 3.1078652246 3.1078652246 3.0932710339 3.0932710339 3.1078652246 
3.1078652246 3.1078652246 3.0932710339 3.0932710339 3.1078652246 3.1078652246 3.0932710339 3.0932710339 3.1078652246 
3.1224594153 3.1224594153 3.1224594153 3.1224594153 3.1078652246 3.0932710339 3.0932710339 3.1078652246 3.1078652246 
3.1224594153 3.1224594153 3.1224594153 3.1224594153 3.1078652246 3.0932710339 3.0932710339 3.1078652246 3.1224594153 
3.1224594153 3.1224594153 3.1224594153 3.1224594153 3.1078652246 3.0932710339 3.0932710339 3.1078652246 3.1224594153 
3.1224594153 3.1078652246 3.1078652246 3.0932710339 3.0932710339 3.1078652246 3.1224594153 3.1224594153 3.1224594153 
3.1224594153 3.1078652246 3.0932710339 3.0932710339 3.1078652246 3.1224594153 3.1224594153 3.1224594153 3.1078652246 
3.0932710339 3.0932710339 3.1078652246 3.1078652246 3.1224594153 3.1224594153 3.1078652246 3.0932710339 3.0786768432 
3.0786768432 3.0786768432 3.0932710339 3.1078652246 3.1224594153 3.1224594153 3.1224594153 3.1224594153 3.1078652246 
3.1078652246 3.0932710339 3.0932710339 3.0786768432 3.0786768432 3.0786768432 3.0786768432 3.0786768432 3.0786768432 
3.0786768432 3.0786768432 3.0932710339 3.1078652246 3.1224594153 3.1224594153 3.1078652246 3.0932710339 3.0786768432 
3.0786768432 3.0786768432 3.0786768432 3.0786768432 3.0786768432 3.0786768432 3.0786768432 3.0786768432 3.0786768432 
3.0786768432 3.0932710339 3.1078652246 3.1224594153 3.1224594153 3.1078652246 3.0932710339 3.0786768432 3.0786768432 
3.0786768432 3.0786768432 3.0786768432 3.0786768432 3.0786768432 3.0932710339 3.0932710339 3.1078652246 3.1224594153 
3.1224594153 3.1224594153 3.1224594153 3.1078652246 3.0932710339 3.0786768432 3.0786768432 3.0786768432 3.0786768432 
3.0786768432 3.0786768432 3.0932710339 3.1078652246 3.1224594153 3.1224594153 3.1078652246 3.0932710339 3.0786768432 
3.0786768432 3.0786768432 3.0786768432 3.0786768432 3.0786768432 3.0932710339 3.1078652246 3.1224594153 3.1224594153 
3.1078652246 3.0932710339 3.0786768432 3.0786768432 3.0786768432 3.0786768432 3.0786768432 3.0786768432 3.0932710339 
3.1078652246 3.1224594153 3.1224594153 3.1224594153 3.1224594153 3.1078652246 3.1078652246 3.0932710339 3.0786768432 
3.0786768432 3.0786768432 3.0786768432 3.0786768432 3.0932710339 3.1078652246 3.1224594153 3.1224594153 3.1078652246 
3.0932710339 3.0786768432 3.0786768432 3.0786768432 3.0786768432 3.0786768432 3.0786768432 3.0932710339 3.1078652246 
3.1224594153 3.137053606 3.137053606 3.137053606 3.1224594153 3.1078652246 3.0932710339 3.0786768432 3.0786768432 
3.0786768432 3.0786768432 3.0786768432 3.0932710339 3.1078652246 3.1078652246 3.1224594153 3.137053606 3.137053606 
3.137053606 3.137053606 3.1224594153 3.1078652246 3.0932710339 3.0786768432 3.0786768432 3.0786768432 3.0786768432 
3.0786768432 3.0786768432 3.0786768432 3.0932710339 3.1078652246 3.1224594153 3.1224594153 3.137053606 3.137053606 
3.137053606 3.137053606 3.137053606 3.1224594153 3.1224594153 3.1078652246 3.0932710339 3.0786768432 3.0786768432 
3.0786768432 3.0786768432 3.0786768432 3.0932710339 3.1078652246 3.1224594153 3.137053606 3.137053606 3.137053606 
3.1224594153 3.1078652246 3.1078652246 3.0932710339 3.0786768432 3.0786768432 3.0786768432 3.0786768432 3.0786768432 
3.0786768432 3.0932710339 3.1078652246 3.1224594153 3.137053606 3.137053606 3.1224594153 3.1078652246 3.0932710339 
3.0786768432 3.0786768432 3.0786768432 3.0786768432 3.0786768432 3.0932710339 3.1078652246 3.1224594153 3.137053606 
3.137053606 3.137053606 3.137053606 3.1224594153 3.1224594153 3.1078652246 3.0932710339 3.0786768432 3.0786768432 
3.0786768432 3.0786768432 3.0786768432 3.0932710339 3.1078652246 3.1224594153 3.137053606 3.137053606 3.1224594153 
3.1078652246 3.0932710339 3.0786768432 3.0786768432 3.0786768432 3.0786768432 3.0786768432 3.0932710339 3.1078652246 
3.1224594153 3.137053606 3.137053606 3.137053606 3.1224594153 3.1078652246 3.0932710339 3.0786768432 3.0786768432 
3.0786768432 3.0786768432 3.0786768432 3.0932710339 3.1078652246 3.1224594153 3.1224594153 3.137053606 3.137053606 
3.137053606 3.1224594153 3.1078652246 3.0932710339 3.0786768432 3.0786768432 3.0786768432 3.0786768432 3.0786768432 
3.0932710339 3.1078652246 3.1224594153 3.137053606 3.137053606 3.1224594153 3.1078652246 3.0932710339 3.0786768432 
3.0786768432 3.0786768432 3.0786768432 3.0786768432 3.0932710339 3.1078652246 3.1224594153 3.137053606 3.137053606 
3.1224594153 3.1224594153 3.1078652246 3.0932710339 3.0786768432 3.0786768432 3.0786768432 3.0786768432 3.0786768432 
3.0932710339 3.1078652246 3.1224594153 3.137053606 3.137053606 3.1516477967 3.1516477967 3.1516477967 3.137053606 
3.137053606 3.1224594153 3.1078652246 3.0932710339 3.0786768432 3.0786768432 3.0786768432 3.0786768432 3.0932710339 
3.1078652246 3.1078652246 3.1224594153 3.1224594153 3.137053606 3.1516477967 3.1516477967 3.1516477967 3.1516477967 
3.1516477967 3.137053606 3.1224594153 3.1078652246 3.1078652246 3.0932710339 3.0786768432 3.0786768432 3.0786768432 
3.0786768432 3.0932710339 3.0932710339 3.1078652246 3.1224594153 3.137053606 3.1516477967 3.1516477967 3.1516477967 
3.137053606 3.1224594153 3.1078652246 3.0932710339 3.0786768432 3.0786768432 3.0786768432 3.0786768432 3.0786768432 
3.0932710339 3.1078652246 3.1224594153 3.137053606 3.137053606 3.1516477967 3.1516477967 3.1516477967 3.1516477967 
3.137053606 3.1224594153 3.1078652246 3.0932710339 3.0786768432 3.0786768432 3.0786768432 3.0786768432 3.0786768432 
3.0640826525 3.0640826525 3.0640826525 3.0640826525 3.0640826525 3.0640826525 3.0786768432 3.0932710339 3.1078652246 
3.1224594153 3.137053606 3.1516477967 3.1516477967 3.137053606 3.1224594153 3.1078652246 3.0932710339 3.0786768432 
3.0786768432 3.0786768432 3.0786768432 3.0640826525 3.0640826525 3.0640826525 3.0640826525 3.0640826525 3.0786768432 
3.0932710339 3.1078652246 3.1224594153 3.137053606 3.137053606 3.1516477967 3.1516477967 3.1516477967 3.1516477967 
3.137053606 3.137053606 3.1224594153 3.1078652246 3.0932710339 3.0786768432 3.0786768432 3.0786768432 3.0640826525 
3.0640826525 3.0640826525 3.0786768432 3.0932710339 3.1078652246 3.1224594153 3.1224594153 3.137053606 3.1516477967 
3.1516477967 3.137053606 3.1224594153 3.1078652246 3.0932710339 3.0786768432 3.0786768432 3.0786768432 3.0640826525 
3.0640826525 3.0640826525 3.0786768432 3.0932710339 3.1078652246 3.1224594153 3.137053606 3.1516477967 3.1516477967 
3.1516477967 3.137053606 3.1224594153 3.1078652246 3.0932710339 3.0786768432 3.0786768432 3.0786768432 3.0786768432 
3.0640826525 3.0640826525 3.0640826525 3.0786768432 3.0932710339 3.1078652246 3.1224594153 3.137053606 3.1516477967 
3.1516477967 3.137053606 3.1224594153 3.1078652246 3.0932710339 3.0786768432 3.0786768432 3.0786768432 3.0786768432 
3.0640826525 3.0640826525 3.0786768432 3.0932710339 3.0932710339 3.1078652246 3.1224594153 3.137053606 3.137053606 
3.1516477967 3.1516477967 3.1516477967 3.137053606 3.1224594153 3.1078652246 3.0932710339 3.0786768432 3.0786768432 
3.0786768432 3.0640826525 3.0640826525 3.0786768432 3.0932710339 3.0932710339 3.1078652246 3.1224594153 3.137053606 
3.1516477967 3.1516477967 3.137053606 3.1224594153 3.1078652246 3.1078652246 3.0932710339 3.0786768432 3.0786768432 
3.0786768432 3.0786768432 3.0786768432 3.0786768432 3.0786768432 3.0640826525 3.0494884618 3.0494884618 3.0494884618 
3.0494884618 3.0494884618 3.0640826525 3.0786768432 3.0786768432 3.0932710339 3.1078652246 3.1078652246 3.1224594153 
3.137053606 3.1516477967 3.1516477967 3.1662419875 3.1662419875 3.1662419875 3.1662419875 3.1662419875 3.1662419875 
3.1516477967 3.137053606 3.1224594153 3.1078652246 3.0932710339 3.0786768432 3.0786768432 3.0786768432 3.0786768432 
3.0786768432 3.0786768432 3.0640826525 3.0640826525 3.0494884618 3.0494884618 3.0494884618 3.0640826525 3.0640826525 
3.0786768432 3.0932710339 3.1078652246 3.1224594153 3.1224594153 3.137053606 3.1516477967 3.1662419875 3.1662419875 
3.1662419875 3.1516477967 3.137053606 3.1224594153 3.1078652246 3.0932710339 3.0932710339 3.0786768432 3.0640826525 
3.0640826525 3.0640826525 3.0786768432 3.0786768432 3.0786768432 3.0786768432 3.0640826525 3.0494884618 3.0494884618 
3.0494884618 3.0640826525 3.0786768432 3.0932710339 3.0932710339 3.1078652246 3.1224594153 3.137053606 3.137053606 
3.1516477967 3.1662419875 3.1662419875 3.1662419875 3.1516477967 3.137053606 3.1224594153 3.1078652246 3.0932710339 
3.0786768432 3.0786768432 3.0640826525 3.0640826525 3.0640826525 3.0640826525 3.0786768432 3.0786768432 3.0786768432 
3.0640826525 3.0494884618 3.0494884618 3.0494884618 3.0640826525 3.0786768432 3.0932710339 3.1078652246 3.1224594153 
3.137053606 3.1516477967 3.1662419875 3.1662419875 3.1662419875 3.1516477967 3.137053606 3.1224594153 3.1078652246 
3.0932710339 3.0786768432 3.0640826525 3.0640826525 3.0640826525 3.0640826525 3.0786768432 3.0786768432 3.0786768432 
3.0640826525 3.0494884618 3.0348942711 3.0348942711 3.0348942711 3.0348942711 3.0494884618 3.0640826525 3.0786768432 
3.0932710339 3.1078652246 3.1224594153 3.137053606 3.1516477967 3.1516477967 3.1662419875 2.9619233175 2.9619233175 
2.9765175082 2.9765175082 2.991111699 2.991111699 3.0057058897 3.0057058897 3.0203000804 3.0203000804 3.0348942711 
3.0348942711 3.0494884618 3.0494884618 3.0640826525 3.0640826525 3.0786768432 3.0786768432 3.0932710339 3.0932710339 
3.1078652246 3.1078652246 3.1224594153 3.1224594153 3.137053606 3.137053606 3.1516477967 3.1516477967 3.1662419875 
3.1662419875 2.9619233175 2.9765175082 2.991111699 3.0057058897 3.0203000804 3.0348942711 3.0494884618 3.0640826525 
3.0786768432 3.0932710339 3.1078652246 3.1224594153 3.137053606 3.1516477967 3.1662419875 2.9619233175 2.9765175082 
2.991111699 3.0057058897 3.0203000804 3.0348942711 3.0494884618 3.0640826525 3.0786768432 3.0932710339 3.1078652246 
3.1224594153 3.137053606 3.1516477967 3.1662419875 2.9619233175 2.9765175082 2.991111699 3.0057058897 3.0203000804 
3.0348942711 3.0494884618 3.0640826525 3.0786768432 3.0932710339 3.1078652246 3.1224594153 3.137053606 3.1516477967 
3.1662419875 2.9619233175 2.9765175082 2.991111699 3.0057058897 3.0203000804 3.0348942711 3.0494884618 3.0640826525 
3.0786768432 3.0932710339 3.1078652246 3.1224594153 3.137053606 3.1516477967 3.1662419875 2.9619233175 2.9765175082 
2.991111699 3.0057058897 3.0203000804 3.0348942711 3.0494884618 3.0640826525 3.0786768432 3.0932710339 3.1078652246 
3.1224594153 3.137053606 3.1516477967 3.1662419875 2.9619233175 2.9765175082 2.991111699 3.0057058897 3.0203000804 
3.0348942711 3.0494884618 3.0640826525 3.0786768432 3.0932710339 3.1078652246 3.1224594153 3.137053606 3.1516477967 
2.9619233175 2.9765175082 2.991111699 3.0057058897 3.0203000804 3.0348942711 3.0494884618 3.0640826525 3.0786768432 
3.0932710339 3.1078652246 3.1224594153 3.137053606 3.1516477967 2.9619233175 2.9765175082 2.991111699 3.0057058897 
3.0203000804 3.0348942711 3.0494884618 3.0640826525 3.0786768432 3.0932710339 3.1078652246 3.1224594153 3.137053606 
3.1516477967 3.1516477967 3.137053606 3.137053606 3.1224594153 3.1078652246 3.0932710339 3.0786768432 3.0640826525 
3.0640826525 3.0640826525 3.0786768432 3.0786768432 3.0640826525 3.0494884618 3.0348942711 3.0348942711 3.0348942711 
3.0494884618 3.0494884618 3.0640826525 3.0786768432 3.0932710339 3.1078652246 3.1224594153 3.1224594153 2.9619233175 
2.9619233175 2.9765175082 2.9765175082 2.991111699 2.991111699 3.0057058897 3.0057058897 3.0203000804 3.0203000804 
3.0348942711 3.0348942711 3.0494884618 3.0494884618 3.0640826525 3.0640826525 3.0786768432 3.0786768432 3.0932710339 
3.0932710339 3.1078652246 3.1078652246 3.1224594153 3.1224594153 3.137053606 2.9619233175 2.9765175082 2.991111699 
3.0057058897 3.0203000804 3.0348942711 3.0494884618 3.0640826525 3.0786768432 3.0932710339 3.1078652246 3.1224594153 
3.137053606 3.1516477967 2.9619233175 2.9765175082 2.991111699 3.0057058897 3.0203000804 3.0348942711 3.0494884618 
3.0640826525 3.0786768432 3.0932710339 3.1078652246 3.1224594153 3.137053606 3.1516477967 2.9619233175 2.9765175082 
2.991111699 3.0057058897 3.0203000804 3.0348942711 3.0494884618 3.0640826525 3.0786768432 3.0932710339 3.1078652246 
3.1224594153 3.137053606 3.1516477967 2.9619233175 2.9765175082 2.991111699 3.0057058897 3.0203000804 3.0348942711 
3.0494884618 3.0640826525 3.0786768432 3.0932710339 3.1078652246 3.1224594153 3.137053606 3.1516477967 3.1662419875 
2.9619233175 2.9765175082 2.991111699 3.0057058897 3.0203000804 3.0348942711 3.0494884618 3.0640826525 3.0786768432 
3.0932710339 3.1078652246 3.1224594153 3.137053606 3.1516477967 2.9619233175 2.9765175082 2.991111699 3.0057058897 
3.0203000804 3.0348942711 3.0494884618 3.0640826525 3.0786768432 3.0932710339 3.1078652246 3.1224594153 3.137053606 
2.9619233175 2.9765175082 2.991111699 3.0057058897 3.0203000804 3.0348942711 3.0494884618 3.0640826525 3.0786768432 
3.0932710339 3.1078652246 3.1224594153 3.137053606 2.9619233175 2.9765175082 2.991111699 3.0057058897 3.0203000804 
3.0348942711 3.0494884618 3.0640826525 3.0786768432 3.0932710339 3.1078652246 3.1224594153 3.137053606 2.9619233175 
2.9765175082 2.991111699 3.0057058897 3.0203000804 3.0348942711 3.0494884618 3.0640826525 3.0786768432 3.0932710339 
3.1078652246 3.1224594153 2.9619233175 2.9765175082 2.991111699 3.0057058897 3.0203000804 3.0348942711 3.0494884618 
3.0640826525 3.0786768432 3.0932710339 3.1078652246 3.1224594153 2.9619233175 2.9765175082 2.991111699 3.0057058897 
3.0203000804 3.0348942711 3.0494884618 3.0640826525 3.0786768432 3.0932710339 3.1078652246 3.1224594153 2.9619233175 