# vtk DataFile Version 4.2
vtk output
ASCII
DATASET POLYDATA
POINTS 7161 float
1584.36 -3179.14 0 1590.86 -3185.09 0 1603.93 -3179.14 0 
1568.96 -3162.14 0 1627.86 -3168.26 0 1641.32 -3162.14 0 
1557.04 -3145.14 0 1664.86 -3151.44 0 1678.71 -3145.14 0 
1546.76 -3128.14 0 1553.86 -3139.88 0 1701.86 -3134.61 0 
1716.09 -3128.14 0 1536.47 -3111.14 0 1738.86 -3117.78 0 
1753.48 -3111.14 0 1526.18 -3094.14 0 1775.87 -3100.96 0 
1790.87 -3094.13 0 1515.89 -3077.14 0 1516.86 -3078.74 0 
1812.87 -3084.13 0 1828.26 -3077.13 0 1505.6 -3060.14 0 
1849.87 -3067.3 0 1865.64 -3060.13 0 1495.32 -3043.14 0 
1886.87 -3050.48 0 1903.03 -3043.13 0 1485.03 -3026.14 0 
1923.87 -3033.65 0 1945.54 -3026.13 0 1474.74 -3009.14 0 
1479.86 -3017.6 0 1960.88 -3022.95 0 1997.88 -3018.34 0 
2034.88 -3013.73 0 2071.86 -3009.12 0 1464.45 -2992.14 0 
2071.88 -3009.12 0 2108.88 -3004.51 0 2145.88 -2999.9 0 
2182.88 -2995.28 0 2208.31 -2992.12 0 1454.16 -2975.14 0 
2219.88 -2990.67 0 2256.89 -2986.06 0 2275.66 -2975.11 0 
1443.88 -2958.14 0 2288.16 -2958.11 0 1433.59 -2941.13 0 
1442.87 -2956.46 0 2293.89 -2942.35 0 2294.14 -2941.11 0 
1423.3 -2924.13 0 2297.62 -2924.11 0 1396.49 -2907.13 0 
1405.87 -2912.98 0 2301.1 -2907.11 0 1353.44 -2890.13 0 
1368.87 -2896.23 0 2304.58 -2890.11 0 1310.39 -2873.13 0 
1331.87 -2881.61 0 2308.06 -2873.11 0 1267.34 -2856.13 0 
1294.87 -2867 0 2311.54 -2856.11 0 1224.29 -2839.13 0 
1257.87 -2852.39 0 2315.02 -2839.1 0 1181.24 -2822.13 0 
1183.87 -2823.17 0 1220.87 -2837.78 0 2318.5 -2822.1 0 
1138.19 -2805.13 0 1146.87 -2808.56 0 2321.98 -2805.1 0 
1095.14 -2788.13 0 1109.87 -2793.95 0 2325.46 -2788.1 0 
1056.41 -2771.13 0 1072.87 -2779.34 0 2328.94 -2771.1 0 
1030.68 -2754.13 0 1035.87 -2758.46 0 2330.9 -2761.52 0 
2332.42 -2754.1 0 1010.3 -2737.13 0 2335.9 -2737.1 0 
989.924 -2720.13 0 998.867 -2727.59 0 2339.38 -2720.1 0 
969.544 -2703.13 0 2342.86 -2703.1 0 957.005 -2686.13 0 
961.867 -2696.73 0 2346.34 -2686.09 0 949.357 -2669.13 0 
2349.82 -2669.09 0 941.891 -2652.13 0 2353.3 -2652.09 0 
934.6 -2635.13 0 2356.78 -2635.09 0 927.479 -2618.13 0 
2360.26 -2618.09 0 920.948 -2601.13 0 924.871 -2611.8 0 
2363.74 -2601.09 0 914.701 -2584.13 0 2367.22 -2584.09 0 
908.454 -2567.13 0 2367.91 -2580.69 0 2370.7 -2567.09 0 
902.206 -2550.13 0 2374.18 -2550.09 0 895.959 -2533.12 0 
2377.66 -2533.08 0 889.712 -2516.12 0 2381.14 -2516.08 0 
883.465 -2499.12 0 887.876 -2511.13 0 2384.62 -2499.08 0 
877.217 -2482.12 0 2388.1 -2482.08 0 870.97 -2465.12 0 
2391.58 -2465.08 0 864.723 -2448.12 0 2395.06 -2448.08 0 
858.475 -2431.12 0 2398.54 -2431.08 0 852.228 -2414.12 0 
2402.02 -2414.08 0 845.981 -2397.12 0 850.881 -2410.45 0 
2404.92 -2399.87 0 2405.5 -2397.08 0 839.733 -2380.12 0 
2408.97 -2380.07 0 833.486 -2363.12 0 2412.45 -2363.07 0 
827.239 -2346.12 0 2415.93 -2346.07 0 820.991 -2329.11 0 
2419.41 -2329.07 0 814.744 -2312.11 0 2422.89 -2312.07 0 
808.497 -2295.11 0 813.886 -2309.78 0 2426.37 -2295.07 0 
802.249 -2278.11 0 2429.85 -2278.07 0 796.002 -2261.11 0 
2433.33 -2261.07 0 789.755 -2244.11 0 2436.81 -2244.07 0 
783.507 -2227.11 0 2440.43 -2227.06 0 777.26 -2210.11 0 
2441.94 -2224.91 0 2451.96 -2210.06 0 771.013 -2193.11 0 
776.891 -2209.1 0 2464.79 -2193.06 0 764.765 -2176.11 0 
2477.61 -2176.06 0 758.518 -2159.11 0 2478.94 -2174.3 0 
2490.43 -2159.06 0 754.575 -2142.11 0 2503.25 -2142.06 0 
752.324 -2125.1 0 2515.94 -2125.23 0 2516.07 -2125.06 0 
750.187 -2108.1 0 2525.49 -2108.06 0 748.05 -2091.1 0 
2530.65 -2091.05 0 745.913 -2074.1 0 2533.17 -2074.05 0 
743.776 -2057.1 0 2532.28 -2057.05 0 741.638 -2040.1 0 
2531.38 -2040.05 0 739.501 -2023.1 0 739.901 -2026.28 0 
2530.49 -2023.05 0 737.364 -2006.1 0 2529.59 -2006.05 0 
735.227 -1989.1 0 2528.7 -1989.05 0 733.09 -1972.1 0 
2527.8 -1972.05 0 730.953 -1955.1 0 2526.91 -1955.05 0 
728.815 -1938.09 0 2526.01 -1938.05 0 726.678 -1921.09 0 
2525.12 -1921.04 0 724.541 -1904.09 0 2524.22 -1904.04 0 
722.404 -1887.09 0 2523.32 -1887.04 0 720.267 -1870.09 0 
2522.43 -1870.04 0 718.13 -1853.09 0 2521.53 -1853.04 0 
715.993 -1836.09 0 2520.64 -1836.04 0 713.855 -1819.09 0 
2519.74 -1819.04 0 711.718 -1802.09 0 2518.85 -1802.04 0 
709.581 -1785.09 0 2517.95 -1785.04 0 707.444 -1768.08 0 
2517.06 -1768.04 0 705.125 -1751.08 0 2516.16 -1751.04 0 
703.118 -1734.08 0 2515.97 -1747.32 0 2515.27 -1734.03 0 
701.193 -1717.08 0 702.917 -1732.07 0 2514.37 -1717.03 0 
695.487 -1700.08 0 2513.47 -1700.03 0 690.252 -1683.08 0 
2512.58 -1683.03 0 685.726 -1666.08 0 2511.68 -1666.03 0 
682.407 -1649.08 0 2510.79 -1649.03 0 679.725 -1632.08 0 
2509.89 -1632.03 0 -481.109 -1627.23 0 -504.016 -1615.11 0 
-444.108 -1631.34 0 -407.106 -1620.49 0 -388.72 -1615.11 0 
676.189 -1615.08 0 2509 -1615.03 0 -518.109 -1607.65 0 
-536.147 -1598.11 0 -370.105 -1609.65 0 -333.103 -1598.81 0 
-330.704 -1598.1 0 672.653 -1598.08 0 2508.1 -1598.03 0 
-555.108 -1588.08 0 -568.278 -1581.11 0 -296.101 -1587.96 0 
-272.688 -1581.1 0 669.116 -1581.07 0 2507.45 -1581.03 0 
-592.108 -1568.5 0 -600.409 -1564.11 0 -259.1 -1577.12 0 
-222.098 -1566.27 0 -214.672 -1564.1 0 665.547 -1564.07 0 
665.926 -1565.74 0 2508.14 -1564.02 0 -629.108 -1548.92 0 
-632.54 -1547.11 0 -185.096 -1555.43 0 -157.506 -1547.1 0 
662.008 -1547.07 0 2509.33 -1547.02 0 -664.671 -1530.11 0 
-148.095 -1544.31 0 -111.093 -1532.66 0 -103.039 -1530.09 0 
658.507 -1530.07 0 2510.52 -1530.02 0 -666.108 -1529.35 0 
-696.802 -1513.11 0 -74.0915 -1520.86 0 -66.2867 -1513.09 0 
654.971 -1513.07 0 2511.72 -1513.02 0 -703.108 -1509.77 0 
-728.933 -1496.11 0 -48.385 -1496.09 0 651.434 -1496.07 0 
2512.91 -1496.02 0 -740.108 -1490.2 0 -752.935 -1479.11 0 
-37.0883 -1484.6 0 -34.1361 -1479.09 0 647.898 -1479.07 0 
1317.97 -1479.05 0 1331.95 -1486.1 0 1368.95 -1491.58 0 
1405.95 -1492.17 0 1442.95 -1492.76 0 1479.95 -1493.36 0 
1516.95 -1493.95 0 1553.95 -1494.54 0 1589.45 -1479.04 0 
2514.1 -1479.02 0 -765.592 -1462.11 0 -22.9749 -1462.09 0 
644.362 -1462.07 0 1284.24 -1462.05 0 1294.95 -1467.45 0 
1590.96 -1478.11 0 1610.12 -1462.04 0 2515.3 -1462.02 0 
-777.106 -1445.24 0 -777.2 -1445.11 0 -11.3643 -1445.09 0 
640.825 -1445.07 0 1253.18 -1445.05 0 1257.95 -1448.8 0 
1627.96 -1447.1 0 1630.41 -1445.04 0 2515.98 -1452.28 0 
2516.49 -1445.02 0 -788.809 -1428.11 0 -0.0841043 -1429.86 0 
1.22974 -1428.08 0 637.289 -1428.07 0 1227.92 -1428.05 0 
1650.7 -1428.04 0 2517.69 -1428.02 0 -800.417 -1411.1 0 
13.8238 -1411.08 0 633.753 -1411.07 0 1209.03 -1411.05 0 
1220.95 -1424.06 0 1664.96 -1416.09 0 1671.1 -1411.04 0 
2518.88 -1411.01 0 -812.026 -1394.1 0 26.4178 -1394.08 0 
630.216 -1394.06 0 1193.45 -1394.05 0 1691.52 -1394.04 0 
2520.07 -1394.01 0 -814.104 -1391.06 0 -823.635 -1377.1 0 
36.9198 -1379.9 0 39.0119 -1377.08 0 626.68 -1377.06 0 
628.935 -1387.91 0 1177.87 -1377.05 0 1183.95 -1383.69 0 
1701.96 -1385.21 0 1712.77 -1377.03 0 2521.27 -1377.01 0 
-835.243 -1360.1 0 51.606 -1360.08 0 623.143 -1360.06 0 
1162.29 -1360.05 0 1735.28 -1360.03 0 2521.6 -1360.01 0 
-846.852 -1343.1 0 64.2 -1343.08 0 619.607 -1343.06 0 
1146.67 -1343.05 0 1146.95 -1343.32 0 1738.97 -1357.21 0 
1752.37 -1343.03 0 2521.81 -1343.01 0 -851.102 -1336.88 0 
-858.46 -1326.1 0 73.9238 -1329.95 0 76.794 -1326.08 0 
616.071 -1326.06 0 1127.02 -1326.05 0 1764.3 -1326.03 0 
2521.06 -1326.01 0 -870.069 -1309.1 0 89.3882 -1309.07 0 
610.74 -1309.06 0 1103.52 -1309.05 0 1109.95 -1313.69 0 
1773.3 -1309.03 0 2517.67 -1309.01 0 -881.677 -1292.1 0 
101.982 -1292.07 0 601.544 -1292.06 0 1079.97 -1292.05 0 
1775.97 -1303.02 0 1780.52 -1292.03 0 2515.99 -1300.58 0 
2514.2 -1292.01 0 -888.099 -1282.69 0 -893.286 -1275.1 0 
110.928 -1280 0 114.576 -1275.07 0 592.348 -1275.06 0 
1056.42 -1275.05 0 1072.95 -1286.98 0 1787.56 -1275.03 0 
2510.9 -1275.01 0 -904.894 -1258.1 0 127.17 -1258.07 0 
584.738 -1258.06 0 591.941 -1274.31 0 1032.87 -1258.05 0 
1035.95 -1260.27 0 1795.41 -1258.03 0 2507.51 -1258.01 0 
-916.503 -1241.1 0 139.764 -1241.07 0 578.655 -1241.06 0 
1009.32 -1241.05 0 1807.22 -1241.02 0 2504.13 -1241.01 0 
-925.097 -1228.51 0 -928.111 -1224.1 0 147.932 -1230.04 0 
150.626 -1224.07 0 574.899 -1224.06 0 991.066 -1224.05 0 
998.954 -1233.57 0 1812.98 -1232.75 0 1819.04 -1224.02 0 
2500.74 -1224 0 -939.72 -1207.1 0 154.758 -1207.07 0 
571.143 -1207.06 0 976.927 -1207.04 0 1830.86 -1207.02 0 
2497.36 -1207 0 -951.329 -1190.1 0 156.862 -1190.07 0 
567.387 -1190.05 0 962.718 -1190.04 0 1842.67 -1190.02 0 
2493.97 -1190 0 -962.095 -1174.33 0 -962.937 -1173.09 0 
158.965 -1173.06 0 563.631 -1173.05 0 951.241 -1173.04 0 
961.956 -1189.13 0 1849.98 -1179.5 0 1854.49 -1173.02 0 
2490.72 -1173 0 -974.546 -1156.09 0 161.068 -1156.06 0 
559.874 -1156.05 0 939.967 -1156.04 0 1866.3 -1156.02 0 
2489.5 -1156 0 -986.154 -1139.09 0 163.171 -1139.06 0 
556.118 -1139.05 0 930.066 -1139.04 0 1878.12 -1139.02 0 
2488.89 -1139 0 -997.927 -1122.09 0 165.275 -1122.06 0 
552.333 -1122.05 0 554.948 -1133.76 0 921.075 -1122.04 0 
924.959 -1129.68 0 1886.98 -1126.26 0 1889.45 -1122.01 0 
2488.56 -1122 0 -999.093 -1121.03 0 -1016.65 -1105.09 0 
167.378 -1105.06 0 548.539 -1105.05 0 912.428 -1105.04 0 
1898.49 -1105.01 0 2488.24 -1105 0 -1027.26 -1088.09 0 
169.481 -1088.06 0 544.751 -1088.05 0 903.78 -1088.04 0 
1905.72 -1088.01 0 2487.91 -1088 0 -1031.73 -1071.09 0 
171.692 -1071.06 0 540.97 -1071.05 0 895.132 -1071.04 0 
1912.27 -1071.01 0 2487.58 -1071 0 -1034.25 -1054.09 0 
178.607 -1054.06 0 537.194 -1054.05 0 884.387 -1054.04 0 
887.962 -1059.93 0 1918.82 -1054.01 0 2487.25 -1053.99 0 
-1036.09 -1040.14 0 -1036.56 -1037.09 0 184.944 -1038.55 0 
185.553 -1037.06 0 533.424 -1037.05 0 870.377 -1037.04 0 
1923.99 -1040.61 0 1925.38 -1037.01 0 2486.93 -1036.99 0 
-1039.06 -1020.09 0 192.5 -1020.05 0 529.66 -1020.05 0 
856.264 -1020.04 0 1931.93 -1020.01 0 2486.6 -1019.99 0 
-1041.35 -1003.09 0 199.447 -1003.05 0 525.902 -1003.04 0 
842.151 -1003.04 0 850.963 -1013.65 0 1938.49 -1003.01 0 
2486.27 -1002.99 0 -1043.45 -986.086 0 206.393 -986.052 0 
522.149 -986.044 0 828.038 -986.036 0 1945.04 -986.005 0 
[...]
POINT_DATA 7161
SCALARS Pressure double
LOOKUP_TABLE default
3.0932710339 3.0932710339 3.0932710339 3.0932710339 3.0932710339 3.0932710339 3.0932710339 3.0932710339 3.0932710339 
3.0932710339 3.0932710339 3.0932710339 3.0932710339 3.0932710339 3.0932710339 3.0932710339 3.0932710339 3.0932710339 
3.0932710339 3.0932710339 3.0932710339 3.0932710339 3.0932710339 3.0932710339 3.0932710339 3.0932710339 3.0932710339 
3.0932710339 3.0932710339 3.0932710339 3.0932710339 3.0932710339 3.0932710339 3.0932710339 3.0932710339 3.0932710339 
3.0932710339 3.0932710339 3.0932710339 3.0932710339 3.0932710339 3.0932710339 3.0932710339 3.0932710339 3.0932710339 
3.0932710339 3.0932710339 3.0932710339 3.0932710339 3.0932710339 3.0932710339 3.0932710339 3.0932710339 3.0932710339 
3.0932710339 3.0932710339 3.0932710339 3.0932710339 3.0932710339 3.0932710339 3.0932710339 3.0932710339 3.0932710339 
3.0932710339 3.0932710339 3.0932710339 3.0932710339 3.0932710339 3.0932710339 3.0932710339 3.0932710339 3.0932710339 
3.0932710339 3.0932710339 3.0932710339 3.0932710339 3.0932710339 3.0932710339 3.0932710339 3.0932710339 3.0932710339 
3.0932710339 3.0932710339 3.0932710339 3.0932710339 3.0932710339 3.0932710339 3.0932710339 3.0932710339 3.0932710339 
3.0932710339 3.0932710339 3.0932710339 3.0932710339 3.0932710339 3.0932710339 3.0932710339 3.0932710339 3.0932710339 
3.0932710339 3.0932710339 3.0932710339 3.0932710339 3.0932710339 3.0932710339 3.0932710339 3.0932710339 3.0932710339 
3.0932710339 3.0932710339 3.0932710339 3.0932710339 3.0932710339 3.0932710339 3.0932710339 3.0932710339 3.0932710339 
3.0932710339 3.0932710339 3.0932710339 3.0932710339 3.0932710339 3.0932710339 3.0932710339 3.0932710339 3.0932710339 
3.0932710339 3.0932710339 3.0932710339 3.0932710339 3.0932710339 3.0932710339 3.0932710339 3.0932710339 3.0932710339 
3.0932710339 3.0932710339 3.0932710339 3.0932710339 3.0932710339 3.0932710339 3.0932710339 3.0932710339 3.0932710339 
3.0932710339 3.0932710339 3.0932710339 3.0932710339 3.0932710339 3.0932710339 3.0932710339 3.0932710339 3.0932710339 
3.0932710339 3.0932710339 3.0932710339 3.0932710339 3.0932710339 3.0932710339 3.0932710339 3.0932710339 3.0932710339 
3.0932710339 3.0932710339 3.0932710339 3.0932710339 3.0932710339 3.0932710339 3.0932710339 3.0932710339 3.0932710339 
3.0932710339 3.0932710339 3.0932710339 3.0932710339 3.0932710339 3.0932710339 3.0932710339 3.0932710339 3.0932710339 
3.0932710339 3.0932710339 3.0932710339 3.0932710339 3.0932710339 3.0932710339 3.0932710339 3.0932710339 3.0932710339 
3.0932710339 3.0932710339 3.0932710339 3.0932710339 3.0932710339 3.0932710339 3.0932710339 3.0932710339 3.0932710339 
3.0932710339 3.0932710339 3.0932710339 3.0932710339 3.0932710339 3.0932710339 3.0932710339 3.0932710339 3.0932710339 
3.0932710339 3.0932710339 3.0932710339 3.0932710339 3.0932710339 3.0932710339 3.0932710339 3.0932710339 3.0932710339 
3.0932710339 3.0932710339 3.0932710339 3.0932710339 3.0932710339 3.0932710339 3.0932710339 3.0932710339 3.0932710339 
3.0932710339 3.0932710339 3.0932710339 3.0932710339 3.0932710339 3.0932710339 3.0932710339 3.0932710339 3.0932710339 
3.0932710339 3.0786768432 3.0786768432 3.0786768432 3.0786768432 3.0786768432 3.0932710339 3.0932710339 3.0786768432 
3.0786768432 3.0786768432 3.0786768432 3.0786768432 3.0932710339 3.0932710339 3.0786768432 3.0786768432 3.0786768432 
3.0786768432 3.0932710339 3.0932710339 3.0786768432 3.0786768432 3.0786768432 3.0786768432 3.0786768432 3.0932710339 
3.0932710339 3.0932710339 3.0786768432 3.0786768432 3.0786768432 3.0786768432 3.0932710339 3.0932710339 3.0786768432 
3.0786768432 3.0786768432 3.0786768432 3.0932710339 3.0932710339 3.0786768432 3.0786768432 3.0786768432 3.0786768432 
3.0932710339 3.0932710339 3.0786768432 3.0786768432 3.0786768432 3.0932710339 3.0932710339 3.0786768432 3.0786768432 
3.0786768432 3.0786768432 3.0932710339 3.1078652246 3.1078652246 3.1078652246 3.1078652246 3.1078652246 3.1078652246 
3.1078652246 3.1078652246 3.1078652246 3.0932710339 3.0786768432 3.0786768432 3.0932710339 3.1078652246 3.1078652246 
3.1078652246 3.1078652246 3.0932710339 3.0786768432 3.0786768432 3.0786768432 3.0932710339 3.1078652246 3.1078652246 
3.1078652246 3.1078652246 3.0932710339 3.0932710339 3.0786768432 3.0786768432 3.0786768432 3.0932710339 3.1078652246 
3.1078652246 3.0932710339 3.0786768432 3.0786768432 3.0932710339 3.1078652246 3.1078652246 3.1078652246 3.1078652246 
3.0932710339 3.0786768432 3.0786768432 3.0932710339 3.1078652246 3.1078652246 3.0932710339 3.0786768432 3.0786768432 
3.0786768432 3.0786768432 3.0932710339 3.0932710339 3.1078652246 3.1078652246 3.1078652246 3.1078652246 3.0932710339 
3.0786768432 3.0786768432 3.0932710339 3.1078652246 3.1078652246 3.0932710339 3.0786768432 3.0786768432 3.0932710339 
3.1078652246 3.1078652246 3.1078652246 3.1078652246 3.0932710339 3.0786768432 3.0786768432 3.0786768432 3.0786768432 
3.0932710339 3.1078652246 3.1078652246 3.0932710339 3.0786768432 3.0786768432 3.0932710339 3.1078652246 3.1078652246 
3.1078652246 3.0932710339 3.0786768432 3.0786768432 3.0932710339 3.1078652246 3.1078652246 3.1078652246 3.0932710339 
3.0932710339 3.0786768432 3.0786768432 3.0786768432 3.0786768432 3.0932710339 3.1078652246 3.1078652246 3.1078652246 
3.0932710339 3.0786768432 3.0786768432 3.0932710339 3.0932710339 3.1078652246 3.1078652246 3.1078652246 3.0932710339 
3.0786768432 3.0786768432 3.0932710339 3.1078652246 3.1078652246 3.0932710339 3.0786768432 3.0786768432 3.0786768432 
3.0786768432 3.0932710339 3.1078652246 3.1078652246 3.1078652246 3.1078652246 3.0932710339 3.0786768432 3.0786768432 
3.0932710339 3.1078652246 3.1078652246 3.0932710339 3.0786768432 3.0786768432 3.0932710339 3.1078652246 3.1078652246 
3.0932710339 3.0786768432 3.0786768432 3.0786768432 3.0932710339 3.1078652246 3.1078652246 3.1078652246 3.1078652246 
3.0932710339 3.0786768432 3.0786768432 3.0932710339 3.1078652246 3.1078652246 3.0932710339 3.0786768432 3.0786768432 
3.0932710339 3.1078652246 3.1078652246 3.0932710339 3.0786768432 3.0786768432 3.0932710339 3.0932710339 3.1078652246 
3.1078652246 3.1078652246 3.1078652246 3.0932710339 3.0786768432 3.0786768432 3.0786768432 3.0932710339 3.1078652246 
3.1078652246 3.0932710339 3.0786768432 3.0786768432 3.0932710339 3.1078652246 3.1078652246 3.0932710339 3.0786768432 
3.0786768432 3.0932710339 3.1078652246 3.1078652246 3.0932710339 3.0786768432 3.0786768432 3.0932710339 3.1078652246 
3.1078652246 3.1078652246 3.0932710339 3.0786768432 3.0786768432 3.0786768432 3.0786768432 3.0932710339 3.1078652246 
3.1078652246 3.1078652246 3.0932710339 3.0786768432 3.0786768432 3.0932710339 3.1078652246 3.1078652246 3.0932710339 
3.0786768432 3.0786768432 3.0932710339 3.1078652246 3.1078652246 3.1078652246 3.0932710339 3.0786768432 3.0786768432 
3.0932710339 3.1078652246 3.1078652246 3.0932710339 3.0786768432 3.0786768432 3.0932710339 3.1078652246 3.1078652246 
3.1078652246 3.0932710339 3.0786768432 3.0786768432 3.0932710339 3.0932710339 3.1078652246 3.1078652246 3.0932710339 
3.0786768432 3.0786768432 3.0786768432 3.0932710339 3.1078652246 3.1078652246 3.1078652246 3.0932710339 3.0786768432 
3.0786768432 3.0932710339 3.1078652246 3.1078652246 3.1078652246 3.0932710339 3.0932710339 3.0786768432 3.0786768432 
3.0932710339 3.1078652246 3.1078652246 3.0932710339 3.0786768432 3.0786768432 3.0932710339 3.1078652246 3.1078652246 
3.0932710339 3.0786768432 3.0786768432 3.0932710339 3.1078652246 3.1078652246 3.0932710339 3.0786768432 3.0786768432 
3.0932710339 3.1078652246 3.1078652246 3.1224594153 3.1224594153 3.1224594153 3.1078652246 3.1078652246 3.0932710339 
3.0786768432 3.0786768432 3.0932710339 3.0932710339 3.1078652246 3.1224594153 3.1224594153 3.1224594153 3.1224594153 
3.1224594153 3.1224594153 3.1224594153 3.1224594153 3.1078652246 3.0932710339 3.0786768432 3.0786768432 3.0932710339 
3.1078652246 3.1224594153 3.1224594153 3.1224594153 3.1224594153 3.1078652246 3.0932710339 3.0786768432 3.0786768432 
3.0932710339 3.1078652246 3.1224594153 3.1224594153 3.1224594153 3.1224594153 3.1078652246 3.0932710339 3.0786768432 
3.0786768432 3.0932710339 3.1078652246 3.1078652246 3.1224594153 3.1224594153 3.1224594153 3.1078652246 3.0932710339 
3.0786768432 3.0786768432 3.0786768432 3.0786768432 3.0786768432 3.0786768432 3.0786768432 3.0932710339 3.1078652246 
3.1224594153 3.1224594153 3.1224594153 3.1078652246 3.0932710339 3.0786768432 3.0786768432 3.0786768432 3.0786768432 
3.0786768432 3.0786768432 3.0640826525 3.0640826525 3.0640826525 3.0640826525 3.0640826525 3.0640826525 3.0640826525 
3.0786768432 3.0932710339 3.1078652246 3.1224594153 3.1224594153 3.1224594153 3.1224594153 3.1078652246 3.0932710339 
3.0786768432 3.0786768432 3.0786768432 3.0786768432 3.0786768432 3.0640826525 3.0640826525 3.0640826525 3.0640826525 
3.0640826525 3.0786768432 3.0932710339 3.1078652246 3.1078652246 3.1224594153 3.1224594153 3.1078652246 3.1078652246 
3.0932710339 3.0786768432 3.0786768432 3.0786768432 3.0786768432 3.0786768432 3.0786768432 3.0640826525 3.0640826525 
3.0786768432 3.0932710339 3.1078652246 3.1224594153 3.1224594153 3.1224594153 3.1224594153 3.1078652246 3.0932710339 
3.0786768432 3.0786768432 3.0786768432 3.0786768432 3.0640826525 3.0640826525 3.0640826525 3.0640826525 3.0786768432 
3.0932710339 3.1078652246 3.1224594153 3.1224594153 3.1078652246 3.0932710339 3.0786768432 3.0786768432 3.0786768432 
3.0786768432 3.0786768432 3.0640826525 3.0640826525 3.0640826525 3.0786768432 3.0932710339 3.1078652246 3.1224594153 
3.1224594153 3.1224594153 3.1078652246 3.0932710339 3.0786768432 3.0786768432 3.0786768432 3.0786768432 3.0640826525 
3.0640826525 3.0640826525 3.0786768432 3.0932710339 3.0932710339 3.1078652246 3.1078652246 3.1224594153 3.1224594153 
3.1224594153 3.1224594153 3.1078652246 3.0932710339 3.0786768432 3.0786768432 3.0786768432 3.0786768432 3.0640826525 
3.0640826525 3.0786768432 3.0932710339 3.1078652246 3.1224594153 3.1224594153 3.1078652246 3.0932710339 3.0786768432 
3.0786768432 3.0786768432 3.0786768432 3.0786768432 3.0640826525 3.0640826525 3.0640826525 3.0640826525 3.0786768432 
3.0932710339 3.1078652246 3.1224594153 3.1224594153 3.1224594153 3.1078652246 3.0932710339 3.0786768432 3.0786768432 
3.0786768432 3.0786768432 3.0640826525 3.0640826525 3.0786768432 3.0932710339 3.1078652246 3.1224594153 3.1224594153 
3.1078652246 3.0932710339 3.0786768432 3.0786768432 3.0786768432 3.0640826525 3.0640826525 3.0640826525 3.0640826525 
3.0786768432 3.0932710339 3.1078652246 3.1224594153 3.1224594153 3.1224594153 3.1224594153 3.1078652246 3.1078652246 
3.0932710339 3.0786768432 3.0786768432 3.0786768432 3.0640826525 3.0640826525 3.0786768432 3.0932710339 3.1078652246 
3.1224594153 3.1224594153 3.1078652246 3.0932710339 3.0786768432 3.0786768432 3.0786768432 3.0786768432 3.0640826525 
3.0640826525 3.0786768432 3.0932710339 3.0932710339 3.1078652246 3.1078652246 3.1224594153 3.1224594153 3.1078652246 
3.0932710339 3.0786768432 3.0786768432 3.0786768432 3.0786768432 3.0640826525 3.0640826525 3.0786768432 3.0932710339 
3.1078652246 3.1224594153 3.1224594153 3.1224594153 3.1224594153 3.1078652246 3.0932710339 3.0786768432 3.0786768432 
3.0786768432 3.0786768432 3.0640826525 3.0640826525 3.0786768432 3.0932710339 3.1078652246 3.1078652246 3.1224594153 
3.1224594153 3.1078652246 3.0932710339 3.0786768432 3.0786768432 3.0786768432 3.0640826525 3.0640826525 3.0640826525 
3.0786768432 3.0786768432 3.0932710339 3.1078652246 3.1224594153 3.1224594153 3.1224594153 3.1078652246 3.0932710339 
3.0786768432 3.0786768432 3.0786768432 3.0786768432 3.0640826525 3.0640826525 3.0640826525 3.0786768432 3.0932710339 
3.1078652246 3.1224594153 3.1224594153 3.1078652246 3.0932710339 3.0786768432 3.0786768432 3.0786768432 3.0640826525 
3.0640826525 3.0786768432 3.0786768432 3.0932710339 3.1078652246 3.1224594153 3.1224594153 3.137053606 3.137053606 
3.137053606 3.137053606 3.1224594153 3.1078652246 3.0932710339 3.0786768432 3.0786768432 3.0786768432 3.0786768432 
3.0640826525 3.0640826525 3.0786768432 3.0932710339 3.1078652246 3.1078652246 3.1224594153 3.137053606 3.137053606 
3.137053606 3.137053606 3.1224594153 3.1224594153 3.1078652246 3.0932710339 3.0786768432 3.0786768432 3.0786768432 
3.0640826525 3.0494884618 3.0494884618 3.0494884618 3.0494884618 3.0640826525 3.0786768432 3.0932710339 3.1078652246 
3.1224594153 3.137053606 3.137053606 3.137053606 3.1224594153 3.1078652246 3.0932710339 3.0786768432 3.0786768432 
3.0786768432 3.0786768432 3.0640826525 3.0494884618 3.0494884618 3.0494884618 3.0494884618 3.0640826525 3.0786768432 
3.0932710339 3.0932710339 3.1078652246 3.1224594153 3.1224594153 3.137053606 3.137053606 3.137053606 3.137053606 
3.1224594153 3.1078652246 3.0932710339 3.0932710339 3.0786768432 3.0786768432 3.0786768432 3.0640826525 3.0640826525 
3.0494884618 3.0494884618 3.0494884618 3.0494884618 3.0640826525 3.0786768432 3.0932710339 3.1078652246 3.1224594153 
3.137053606 3.137053606 3.137053606 3.1224594153 3.1078652246 3.0932710339 3.0786768432 3.0786768432 3.0786768432 
3.0640826525 3.0494884618 3.0494884618 3.0494884618 3.0640826525 3.0786768432 3.0932710339 3.1078652246 3.1078652246 
3.1224594153 3.137053606 3.137053606 3.1224594153 3.1078652246 3.0932710339 3.0786768432 3.0786768432 3.0786768432 
3.0786768432 3.0640826525 3.0494884618 3.0494884618 3.0640826525 3.0786768432 3.0932710339 3.1078652246 3.1224594153 
3.1224594153 3.137053606 3.137053606 3.137053606 3.137053606 3.1224594153 3.1078652246 3.0932710339 3.0786768432 
3.0786768432 3.0786768432 3.0786768432 3.0640826525 3.0494884618 3.0494884618 3.0494884618 3.0640826525 3.0786768432 
3.0932710339 3.0932710339 3.1078652246 3.1224594153 3.137053606 3.137053606 3.137053606 3.1224594153 3.1078652246 
3.0932710339 3.0786768432 3.0786768432 3.0786768432 3.0640826525 3.0494884618 3.0494884618 3.0494884618 3.0640826525 
3.0786768432 3.0932710339 3.1078652246 3.1078652246 3.1224594153 3.137053606 3.137053606 3.137053606 3.1224594153 
3.1078652246 3.0932710339 3.0786768432 3.0786768432 3.0786768432 3.0786768432 3.0640826525 3.0494884618 3.0494884618 
3.0494884618 3.0640826525 3.0786768432 3.0932710339 3.1078652246 3.1224594153 3.137053606 3.137053606 3.1224594153 
3.1078652246 3.0932710339 3.0786768432 3.0786768432 3.0786768432 3.0640826525 3.0494884618 3.0494884618 3.0640826525 
3.0786768432 3.0932710339 3.1078652246 3.1224594153 3.1224594153 3.137053606 3.137053606 3.137053606 3.1224594153 
3.1078652246 3.0932710339 3.0786768432 3.0786768432 3.0786768432 3.0786768432 3.0786768432 3.0640826525 3.0494884618 
3.0494884618 3.0494884618 3.0640826525 3.0786768432 3.0932710339 3.1078652246 3.1224594153 3.137053606 3.137053606 
3.137053606 3.1224594153 3.1078652246 3.0932710339 3.0786768432 3.0786768432 3.0786768432 3.0786768432 3.0640826525 
3.0640826525 3.0494884618 3.0348942711 3.0348942711 3.0348942711 3.0494884618 3.0640826525 3.0786768432 3.0932710339 
3.1078652246 3.1078652246 3.1224594153 3.137053606 3.137053606 3.137053606 3.1224594153 3.1078652246 3.0932710339 
3.0786768432 3.0786768432 3.0786768432 3.0786768432 3.0786768432 3.0640826525 3.0494884618 3.0348942711 3.0348942711 
3.0348942711 3.0494884618 3.0494884618 3.0640826525 3.0786768432 3.0786768432 3.0932710339 3.0932710339 3.1078652246 
3.1224594153 3.137053606 3.137053606 3.137053606 3.1224594153 3.1078652246 3.0932710339 3.0786768432 3.0640826525 
3.0640826525 3.0640826525 3.0640826525 3.0640826525 3.0786768432 3.0786768432 3.0786768432 3.0786768432 3.0786768432 
3.0786768432 3.0786768432 3.0640826525 3.0494884618 3.0348942711 3.0348942711 3.0348942711 3.0348942711 3.0494884618 
3.0640826525 3.0640826525 3.0786768432 3.0932710339 3.1078652246 3.1224594153 3.1224594153 3.137053606 3.137053606 
3.1224594153 3.1078652246 3.0932710339 3.0786768432 3.0640826525 3.0640826525 3.0640826525 3.0786768432 3.0786768432 
3.0786768432 3.0786768432 3.0786768432 3.0640826525 3.0494884618 3.0348942711 3.0348942711 3.0348942711 3.0348942711 
3.0494884618 3.0640826525 3.0786768432 3.0932710339 3.1078652246 3.1224594153 3.137053606 3.137053606 3.1224594153 
3.1078652246 3.0932710339 3.0786768432 3.0786768432 3.0640826525 3.0640826525 3.0640826525 3.0786768432 3.0786768432 
3.0640826525 3.0494884618 3.0348942711 3.0348942711 3.0494884618 3.0640826525 3.0786768432 3.0932710339 3.1078652246 
3.1224594153 3.137053606 3.137053606 3.137053606 3.1224594153 3.1078652246 3.0932710339 3.0932710339 3.0786768432 
3.0640826525 3.0640826525 3.0640826525 3.0640826525 3.0786768432 3.0786768432 3.0786768432 3.0640826525 3.0494884618 
3.0348942711 3.0348942711 3.0348942711 3.0348942711 3.0494884618 3.0640826525 3.0640826525 3.0786768432 3.0932710339 
3.1078652246 3.1224594153 3.137053606 3.137053606 3.137053606 3.1224594153 3.1078652246 3.0932710339 3.0786768432 
3.0640826525 3.0640826525 3.0640826525 3.0786768432 3.0786768432 3.0786768432 3.0640826525 3.0494884618 3.0494884618 
3.0348942711 3.0203000804 3.0203000804 3.0203000804 3.0203000804 3.0348942711 3.0494884618 3.0640826525 3.0786768432 
3.0932710339 3.1078652246 3.1078652246 3.1224594153 2.9619233175 2.9619233175 2.9765175082 2.9765175082 2.991111699 
2.991111699 3.0057058897 3.0057058897 3.0203000804 3.0203000804 3.0348942711 3.0348942711 3.0494884618 3.0494884618 
3.0640826525 3.0640826525 3.0786768432 3.0786768432 3.0932710339 3.0932710339 3.1078652246 3.1078652246 3.1224594153 
3.1224594153 2.9619233175 2.9765175082 2.991111699 3.0057058897 3.0203000804 3.0348942711 3.0494884618 3.0640826525 
3.0786768432 3.0932710339 3.1078652246 3.1224594153 3.137053606 2.9619233175 2.9765175082 2.991111699 3.0057058897 
3.0203000804 3.0348942711 3.0494884618 3.0640826525 3.0786768432 3.0932710339 3.1078652246 3.1224594153 3.137053606 
2.9619233175 2.9765175082 2.991111699 3.0057058897 3.0203000804 3.0348942711 3.0494884618 3.0640826525 3.0786768432 
3.0932710339 3.1078652246 3.1224594153 3.137053606 2.9619233175 2.9765175082 2.991111699 3.0057058897 3.0203000804 
3.0348942711 3.0494884618 3.0640826525 3.0786768432 3.0932710339 3.1078652246 3.1224594153 3.137053606 2.9619233175 
2.9765175082 2.991111699 3.0057058897 3.0203000804 3.0348942711 3.0494884618 3.0640826525 3.0786768432 3.0932710339 
3.1078652246 3.1224594153 3.137053606 2.9619233175 2.9765175082 2.991111699 3.0057058897 3.0203000804 3.0348942711 
3.0494884618 3.0640826525 3.0786768432 3.0932710339 3.1078652246 3.1224594153 3.137053606 2.9619233175 2.9765175082 
2.991111699 3.0057058897 3.0203000804 3.0348942711 3.0494884618 3.0640826525 3.0786768432 3.0932710339 3.1078652246 
3.1224594153 3.137053606 2.9619233175 2.9765175082 2.991111699 3.0057058897 3.0203000804 3.0348942711 3.0494884618 
3.0640826525 3.0786768432 3.0932710339 3.1078652246 3.1224594153 3.137053606 2.9619233175 2.9765175082 2.991111699 
3.0057058897 3.0203000804 3.0348942711 3.0494884618 3.0640826525 3.0786768432 3.0932710339 3.1078652246 3.1224594153 
3.137053606 3.137053606 3.1224594153 3.1078652246 3.0932710339 3.0786768432 3.0640826525 3.0640826525 3.0786768432 
3.0786768432 3.0640826525 3.0494884618 3.0348942711 3.0203000804 3.0203000804 3.0203000804 3.0203000804 3.0348942711 
3.0494884618 3.0640826525 3.0786768432 3.0932710339 3.1078652246 3.1078652246 2.9619233175 2.9619233175 2.9765175082 
2.9765175082 2.991111699 2.991111699 3.0057058897 3.0057058897 3.0203000804 3.0203000804 3.0348942711 3.0348942711 
3.0494884618 3.0494884618 3.0640826525 3.0640826525 3.0786768432 3.0786768432 3.0932710339 3.0932710339 3.1078652246 
3.1078652246 2.9619233175 2.9765175082 2.991111699 3.0057058897 3.0203000804 3.0348942711 3.0494884618 3.0640826525 
3.0786768432 3.0932710339 3.1078652246 2.9619233175 2.9765175082 2.991111699 3.0057058897 3.0203000804 3.0348942711 
3.0494884618 3.0640826525 3.0786768432 3.0932710339 3.1078652246 2.9619233175 2.9765175082 2.991111699 3.0057058897 
3.0203000804 3.0348942711 3.0494884618 3.0640826525 3.0786768432 3.0932710339 3.1078652246 3.1224594153 2.9619233175 