# vtk DataFile Version 4.2
vtk output
ASCII
DATASET POLYDATA
POINTS 7068 float
1545.28 -3281.15 0 1553.85 -3295.31 0 1590.85 -3294.82 0 
1619.16 -3281.15 0 1534.99 -3264.15 0 1627.85 -3276.95 0 
1654.37 -3264.15 0 1524.7 -3247.15 0 1664.85 -3259.08 0 
1689.57 -3247.15 0 1514.41 -3230.15 0 1516.85 -3234.18 0 
1701.86 -3241.21 0 1724.78 -3230.14 0 1504.12 -3213.15 0 
1738.86 -3223.34 0 1759.98 -3213.14 0 1493.83 -3196.15 0 
1775.86 -3205.47 0 1795.19 -3196.14 0 1483.55 -3179.15 0 
1812.86 -3187.61 0 1830.4 -3179.14 0 1473.26 -3162.15 0 
1479.85 -3173.05 0 1849.86 -3169.74 0 1865.6 -3162.14 0 
1462.97 -3145.15 0 1886.87 -3151.87 0 1900.81 -3145.13 0 
1452.68 -3128.14 0 1923.87 -3134 0 1936.01 -3128.13 0 
1442.39 -3111.14 0 1442.86 -3111.91 0 1960.87 -3116.13 0 
1971.22 -3111.13 0 1432.1 -3094.14 0 1997.87 -3098.26 0 
2006.42 -3094.13 0 1421.81 -3077.14 0 2034.87 -3080.39 0 
2041.63 -3077.13 0 1411.52 -3060.14 0 2071.88 -3067.61 0 
2108.88 -3062.24 0 2126.46 -3060.12 0 1401.24 -3043.14 0 
1405.86 -3050.78 0 2145.88 -3057.79 0 2182.88 -3053.34 0 
2219.88 -3048.89 0 2256.88 -3044.45 0 2267.95 -3043.12 0 
1390.95 -3026.14 0 2293.88 -3040 0 2306.56 -3026.12 0 
1380.66 -3009.14 0 2315.93 -3009.11 0 1370.37 -2992.14 0 
2321.11 -2992.11 0 1360.08 -2975.14 0 1368.86 -2989.65 0 
2324.75 -2975.11 0 1349.79 -2958.14 0 2328.4 -2958.11 0 
1339.5 -2941.14 0 2330.89 -2946.5 0 2332.05 -2941.11 0 
1329.21 -2924.14 0 1331.86 -2928.51 0 2335.69 -2924.11 0 
1299.38 -2907.14 0 2339.34 -2907.11 0 1255.23 -2890.14 0 
1257.86 -2891.15 0 1294.86 -2905.4 0 2342.98 -2890.11 0 
1211.08 -2873.14 0 1220.86 -2876.9 0 2346.63 -2873.11 0 
1166.93 -2856.14 0 1183.86 -2862.66 0 2350.27 -2856.1 0 
1122.78 -2839.14 0 1146.86 -2848.41 0 2353.92 -2839.1 0 
1078.63 -2822.14 0 1109.86 -2834.16 0 2357.57 -2822.1 0 
1034.91 -2805.14 0 1035.86 -2805.67 0 1072.86 -2819.92 0 
2361.21 -2805.1 0 1008.48 -2788.14 0 2364.86 -2788.1 0 
985.651 -2771.14 0 998.863 -2780.97 0 2367.9 -2773.9 0 
2368.5 -2771.1 0 962.819 -2754.14 0 2372.15 -2754.1 0 
953.844 -2737.14 0 961.864 -2753.42 0 2375.79 -2737.1 0 
945.688 -2720.13 0 2379.44 -2720.1 0 937.743 -2703.13 0 
2383.08 -2703.09 0 930.002 -2686.13 0 2386.73 -2686.09 0 
922.806 -2669.13 0 924.868 -2674.61 0 2390.38 -2669.09 0 
916.413 -2652.13 0 2394.02 -2652.09 0 910.019 -2635.13 0 
2397.67 -2635.09 0 903.625 -2618.13 0 2401.31 -2618.09 0 
897.232 -2601.13 0 2404.91 -2601.31 0 2404.96 -2601.09 0 
890.838 -2584.13 0 2408.6 -2584.09 0 884.445 -2567.13 0 
887.872 -2576.24 0 2412.25 -2567.09 0 878.051 -2550.13 0 
2415.9 -2550.08 0 871.657 -2533.13 0 2419.54 -2533.08 0 
865.264 -2516.12 0 2423.19 -2516.08 0 858.87 -2499.12 0 
2426.83 -2499.08 0 852.477 -2482.12 0 2430.48 -2482.08 0 
846.083 -2465.12 0 850.877 -2477.87 0 2434.12 -2465.08 0 
839.69 -2448.12 0 2437.77 -2448.08 0 833.296 -2431.12 0 
2441.42 -2431.08 0 826.902 -2414.12 0 2441.92 -2428.71 0 
2445.06 -2414.08 0 820.509 -2397.12 0 2448.71 -2397.07 0 
814.115 -2380.12 0 2452.35 -2380.07 0 807.721 -2363.12 0 
813.882 -2379.5 0 2456 -2363.07 0 801.328 -2346.12 0 
2459.64 -2346.07 0 794.934 -2329.12 0 2463.29 -2329.07 0 
788.541 -2312.11 0 2466.93 -2312.07 0 782.147 -2295.11 0 
2470.58 -2295.07 0 775.754 -2278.11 0 776.887 -2281.13 0 
2474.23 -2278.07 0 769.36 -2261.11 0 2477.87 -2261.07 0 
762.966 -2244.11 0 2478.93 -2256.11 0 2481.52 -2244.06 0 
756.573 -2227.11 0 2485.16 -2227.06 0 750.179 -2210.11 0 
2491.75 -2210.06 0 743.786 -2193.11 0 2504.34 -2193.06 0 
737.407 -2176.11 0 739.892 -2182.75 0 2515.94 -2177.41 0 
2516.94 -2176.06 0 731.893 -2159.11 0 2529.55 -2159.06 0 
729.633 -2142.11 0 2542.15 -2142.06 0 727.409 -2125.11 0 
2552.94 -2127.5 0 2553.84 -2125.06 0 725.185 -2108.1 0 
2553.59 -2108.05 0 722.961 -2091.1 0 2552.95 -2096.54 0 
2552.58 -2091.05 0 720.737 -2074.1 0 2551.68 -2074.05 0 
718.513 -2057.1 0 2550.73 -2057.05 0 716.29 -2040.1 0 
2549.78 -2040.05 0 714.066 -2023.1 0 2548.82 -2023.05 0 
711.842 -2006.1 0 2547.87 -2006.05 0 709.618 -1989.1 0 
2546.92 -1989.05 0 707.394 -1972.1 0 2545.97 -1972.05 0 
705.171 -1955.1 0 2545.01 -1955.05 0 702.947 -1938.09 0 
2544.06 -1938.05 0 700.723 -1921.09 0 702.905 -1937.78 0 
2543.11 -1921.04 0 698.499 -1904.09 0 2542.15 -1904.04 0 
696.275 -1887.09 0 2541.2 -1887.04 0 694.052 -1870.09 0 
2540.25 -1870.04 0 691.828 -1853.09 0 2539.29 -1853.04 0 
689.604 -1836.09 0 2538.34 -1836.04 0 687.38 -1819.09 0 
2537.39 -1819.04 0 685.156 -1802.09 0 2536.43 -1802.04 0 
682.932 -1785.09 0 2535.48 -1785.04 0 680.694 -1768.09 0 
2534.53 -1768.04 0 679.18 -1751.08 0 2533.57 -1751.03 0 
677.751 -1734.08 0 2532.62 -1734.03 0 676.4 -1717.08 0 
2531.67 -1717.03 0 674.073 -1700.08 0 2530.71 -1700.03 0 
671.84 -1683.08 0 2529.76 -1683.03 0 670.017 -1666.08 0 
2528.81 -1666.03 0 668.68 -1649.08 0 2527.85 -1649.03 0 
666.563 -1632.08 0 2526.9 -1632.03 0 661.502 -1615.08 0 
665.922 -1629.09 0 2525.95 -1615.03 0 -481.107 -1603.8 0 
-492.359 -1598.11 0 -444.106 -1604.97 0 -421.364 -1598.11 0 
657.148 -1598.08 0 2524.99 -1598.03 0 -518.107 -1585.08 0 
-525.947 -1581.11 0 -407.105 -1593.8 0 -370.103 -1582.64 0 
-365.001 -1581.1 0 653.608 -1581.08 0 2524.04 -1581.02 0 
-555.107 -1566.35 0 -559.535 -1564.11 0 -333.101 -1571.48 0 
-308.638 -1564.1 0 650.674 -1564.07 0 2524.23 -1564.02 0 
-592.107 -1547.62 0 -593.124 -1547.11 0 -296.1 -1560.32 0 
-259.098 -1549.16 0 -252.276 -1547.1 0 648.203 -1547.07 0 
2525.34 -1547.02 0 -626.712 -1530.11 0 -222.096 -1537.99 0 
-195.913 -1530.1 0 644.723 -1530.07 0 1328.6 -1530.05 0 
1331.95 -1531.3 0 1368.95 -1531.74 0 1405.95 -1532.18 0 
1442.95 -1532.62 0 1479.95 -1533.06 0 1516.95 -1533.5 0 
1553.95 -1533.93 0 1590.95 -1533.01 0 1595.3 -1530.05 0 
2526.5 -1530.02 0 -629.107 -1528.89 0 -660.3 -1513.11 0 
-185.095 -1526.83 0 -148.093 -1515.67 0 -139.551 -1513.09 0 
641.083 -1513.07 0 1290.54 -1513.05 0 1294.95 -1515.25 0 
1614.42 -1513.05 0 2527.66 -1513.02 0 -666.107 -1510.17 0 
-693.889 -1496.11 0 -111.091 -1504.51 0 -83.4312 -1496.09 0 
637.443 -1496.07 0 1257.25 -1496.05 0 1257.95 -1496.79 0 
1627.96 -1501.02 0 1633.55 -1496.04 0 2528.83 -1496.02 0 
-703.107 -1491.44 0 -727.477 -1479.11 0 -74.0898 -1493.26 0 
-60.442 -1479.09 0 633.803 -1479.07 0 1239.49 -1479.05 0 
1652.67 -1479.04 0 2529.99 -1479.02 0 -740.106 -1469.96 0 
-746.318 -1462.11 0 -37.7024 -1462.09 0 630.163 -1462.07 0 
1218.93 -1462.05 0 1220.95 -1464.23 0 1664.96 -1468.12 0 
1672.18 -1462.04 0 2531.15 -1462.02 0 -758.1 -1445.11 0 
-37.087 -1461.67 0 -25.0468 -1445.09 0 626.523 -1445.07 0 
628.931 -1456.32 0 1203.17 -1445.05 0 1692.09 -1445.04 0 
2532.31 -1445.02 0 -769.883 -1428.1 0 -12.7024 -1428.08 0 
622.883 -1428.07 0 1187.41 -1428.05 0 1701.96 -1436.46 0 
1712.63 -1428.04 0 2533.48 -1428.02 0 -777.104 -1417.68 0 
-781.665 -1411.1 0 -0.358004 -1411.08 0 619.243 -1411.07 0 
1171.64 -1411.05 0 1183.95 -1424.32 0 1734.17 -1411.04 0 
2534.64 -1411.01 0 -793.447 -1394.1 0 -0.0829777 -1410.7 0 
11.9863 -1394.08 0 615.603 -1394.07 0 1155.88 -1394.05 0 
1738.96 -1407.25 0 1755.7 -1394.03 0 2535.8 -1394.01 0 
-805.229 -1377.1 0 24.3308 -1377.08 0 611.963 -1377.06 0 
1140.12 -1377.05 0 1146.95 -1384.41 0 1775.97 -1378.03 0 
1776.63 -1377.03 0 2536.96 -1377.01 0 -814.102 -1364.3 0 
-817.012 -1360.1 0 36.6751 -1360.08 0 608.323 -1360.06 0 
1123.42 -1360.05 0 1784.51 -1360.03 0 2535.23 -1360.01 0 
-828.794 -1343.1 0 36.921 -1359.74 0 49.0195 -1343.08 0 
604.683 -1343.06 0 1102.47 -1343.05 0 1109.95 -1348.38 0 
1791.34 -1343.03 0 2533.75 -1343.01 0 -840.577 -1326.1 0 
61.3638 -1326.08 0 601.043 -1326.06 0 1078.66 -1326.05 0 
1798.16 -1326.03 0 2532.01 -1326.01 0 -851.1 -1310.92 0 
-852.359 -1309.1 0 73.7083 -1309.07 0 595.71 -1309.06 0 
1054.84 -1309.05 0 1072.95 -1321.98 0 1804.99 -1309.03 0 
2528.66 -1309.01 0 -864.141 -1292.1 0 73.925 -1308.78 0 
86.0526 -1292.07 0 586.449 -1292.06 0 591.939 -1302.14 0 
1031.02 -1292.05 0 1035.95 -1295.57 0 1811.82 -1292.03 0 
2525.31 -1292.01 0 -875.924 -1275.1 0 98.397 -1275.07 0 
578.6 -1275.06 0 1007.2 -1275.05 0 1812.97 -1289.14 0 
1818.64 -1275.03 0 2521.96 -1275.01 0 -887.706 -1258.1 0 
110.741 -1258.07 0 572.254 -1258.06 0 989.699 -1258.05 0 
998.952 -1269.16 0 1825.77 -1258.02 0 2518.61 -1258.01 0 
-888.098 -1257.53 0 -899.488 -1241.1 0 110.929 -1257.81 0 
123.086 -1241.07 0 567.09 -1241.06 0 975.489 -1241.05 0 
1836.98 -1241.02 0 2515.99 -1244.74 0 2515.26 -1241.01 0 
-911.271 -1224.1 0 135.43 -1224.07 0 563.277 -1224.06 0 
961.36 -1224.05 0 961.954 -1224.93 0 1848.24 -1224.02 0 
2511.91 -1224 0 -923.053 -1207.1 0 143.301 -1207.07 0 
559.463 -1207.06 0 949.935 -1207.05 0 1849.98 -1221.39 0 
1859.5 -1207.02 0 2508.56 -1207 0 -925.096 -1204.15 0 
-934.835 -1190.1 0 146.578 -1190.07 0 555.649 -1190.06 0 
938.51 -1190.04 0 1870.76 -1190.02 0 2505.21 -1190 0 
-946.618 -1173.09 0 147.935 -1180.71 0 148.809 -1173.06 0 
551.788 -1173.05 0 554.945 -1186.92 0 927.085 -1173.04 0 
1882.01 -1173.02 0 2501.93 -1173 0 -958.4 -1156.09 0 
150.755 -1156.06 0 547.922 -1156.05 0 916.747 -1156.04 0 
924.956 -1169.85 0 1886.98 -1165.52 0 1893.12 -1156.02 0 
2499.86 -1156 0 -962.094 -1150.76 0 -970.182 -1139.09 0 
152.701 -1139.06 0 544.063 -1139.05 0 908.032 -1139.04 0 
1902.83 -1139.02 0 2498.93 -1139 0 -984.278 -1122.09 0 
154.647 -1122.06 0 540.211 -1122.05 0 899.316 -1122.04 0 
1911.18 -1122.01 0 2498.55 -1122 0 -999.092 -1108.87 0 
-1003.34 -1105.09 0 156.593 -1105.06 0 536.365 -1105.05 0 
890.601 -1105.04 0 1918.45 -1105.01 0 2498.17 -1105 0 
-1017.11 -1088.09 0 158.54 -1088.06 0 532.527 -1088.05 0 
881.885 -1088.04 0 887.959 -1099.89 0 1923.99 -1090.36 0 
1924.85 -1088.01 0 2497.78 -1088 0 -1024.05 -1071.09 0 
160.544 -1071.06 0 528.694 -1071.05 0 873.17 -1071.04 0 
1931.12 -1071.01 0 2497.4 -1071 0 -1027.11 -1054.09 0 
167.387 -1054.06 0 524.869 -1054.05 0 863.669 -1054.04 0 
1937.38 -1054.01 0 2497.02 -1053.99 0 -1029.38 -1037.09 0 
174.29 -1037.06 0 521.05 -1037.05 0 850.26 -1037.04 0 
850.962 -1037.95 0 1943.65 -1037.01 0 2496.63 -1036.99 0 
-1031.65 -1020.09 0 181.194 -1020.06 0 517.212 -1020.05 0 
[...]
POINT_DATA 7068
SCALARS Pressure double
LOOKUP_TABLE default
3.0932710339 3.0932710339 3.0932710339 3.0932710339 3.0932710339 3.0932710339 3.0932710339 3.0932710339 3.0932710339 
3.0932710339 3.0932710339 3.0932710339 3.0932710339 3.0932710339 3.0932710339 3.0932710339 3.0932710339 3.0932710339 
3.0932710339 3.0932710339 3.0932710339 3.0932710339 3.0932710339 3.0932710339 3.0932710339 3.0932710339 3.0932710339 
3.0932710339 3.0932710339 3.0932710339 3.0932710339 3.0932710339 3.0932710339 3.0932710339 3.0932710339 3.0932710339 
3.0932710339 3.0932710339 3.0932710339 3.0932710339 3.0932710339 3.0932710339 3.0932710339 3.0932710339 3.0932710339 
3.0932710339 3.0932710339 3.0932710339 3.0932710339 3.0932710339 3.0932710339 3.0932710339 3.0932710339 3.0932710339 
3.0932710339 3.0932710339 3.0932710339 3.0932710339 3.0932710339 3.0932710339 3.0932710339 3.0932710339 3.0932710339 
3.0932710339 3.0932710339 3.0932710339 3.0932710339 3.0932710339 3.0932710339 3.0932710339 3.0932710339 3.0932710339 
3.0932710339 3.0932710339 3.0932710339 3.0932710339 3.0932710339 3.0932710339 3.0932710339 3.0932710339 3.0932710339 
3.0932710339 3.0932710339 3.0932710339 3.0932710339 3.0932710339 3.0932710339 3.0932710339 3.0932710339 3.0932710339 
3.0932710339 3.0932710339 3.0932710339 3.0932710339 3.0932710339 3.0932710339 3.0932710339 3.0932710339 3.0932710339 
3.0932710339 3.0932710339 3.0932710339 3.0932710339 3.0932710339 3.0932710339 3.0932710339 3.0932710339 3.0932710339 
3.0932710339 3.0932710339 3.0932710339 3.0932710339 3.0932710339 3.0932710339 3.0932710339 3.0932710339 3.0932710339 
3.0932710339 3.0932710339 3.0932710339 3.0932710339 3.0932710339 3.0932710339 3.0932710339 3.0932710339 3.0932710339 
3.0932710339 3.0932710339 3.0932710339 3.0932710339 3.0932710339 3.0932710339 3.0932710339 3.0932710339 3.0932710339 
3.0932710339 3.0932710339 3.0932710339 3.0932710339 3.0932710339 3.0932710339 3.0932710339 3.0932710339 3.0932710339 
3.0932710339 3.0932710339 3.0932710339 3.0932710339 3.0932710339 3.0932710339 3.0932710339 3.0932710339 3.0932710339 
3.0932710339 3.0932710339 3.0932710339 3.0932710339 3.0932710339 3.0932710339 3.0932710339 3.0932710339 3.0932710339 
3.0932710339 3.0932710339 3.0932710339 3.0932710339 3.0932710339 3.0932710339 3.0932710339 3.0932710339 3.0932710339 
3.0932710339 3.0932710339 3.0932710339 3.0932710339 3.0932710339 3.0932710339 3.0932710339 3.0932710339 3.0932710339 
3.0932710339 3.0932710339 3.0932710339 3.0932710339 3.0932710339 3.0932710339 3.0932710339 3.0932710339 3.0932710339 
3.0932710339 3.0932710339 3.0932710339 3.0932710339 3.0932710339 3.0932710339 3.0932710339 3.0932710339 3.0932710339 
3.0932710339 3.0932710339 3.0932710339 3.0932710339 3.0932710339 3.0932710339 3.0932710339 3.0932710339 3.0932710339 
3.0932710339 3.0932710339 3.0932710339 3.0932710339 3.0932710339 3.0932710339 3.0932710339 3.0932710339 3.0932710339 
3.0932710339 3.0932710339 3.0932710339 3.0932710339 3.0932710339 3.0932710339 3.0932710339 3.0932710339 3.0932710339 
3.0932710339 3.0932710339 3.0932710339 3.0932710339 3.0932710339 3.0932710339 3.0932710339 3.0932710339 3.0932710339 
3.0932710339 3.0932710339 3.0932710339 3.0932710339 3.0932710339 3.0932710339 3.0932710339 3.0932710339 3.0932710339 
3.0932710339 3.0932710339 3.0932710339 3.0932710339 3.0932710339 3.0932710339 3.0932710339 3.0932710339 3.0786768432 
3.0786768432 3.0786768432 3.0786768432 3.0932710339 3.0932710339 3.0786768432 3.0786768432 3.0786768432 3.0786768432 
3.0786768432 3.0932710339 3.0932710339 3.0786768432 3.0786768432 3.0786768432 3.0786768432 3.0932710339 3.0932710339 
3.0786768432 3.0786768432 3.0786768432 3.0786768432 3.0786768432 3.0932710339 3.0932710339 3.0786768432 3.0786768432 
3.0786768432 3.0932710339 3.1078652246 3.1078652246 3.1078652246 3.1078652246 3.1078652246 3.1078652246 3.1078652246 
3.1078652246 3.1078652246 3.1078652246 3.0932710339 3.0786768432 3.0786768432 3.0786768432 3.0786768432 3.0786768432 
3.0932710339 3.1078652246 3.1078652246 3.1078652246 3.0932710339 3.0786768432 3.0786768432 3.0786768432 3.0786768432 
3.0932710339 3.1078652246 3.1078652246 3.1078652246 3.1078652246 3.0932710339 3.0786768432 3.0786768432 3.0786768432 
3.0786768432 3.0932710339 3.1078652246 3.1078652246 3.0932710339 3.0786768432 3.0786768432 3.0786768432 3.0932710339 
3.1078652246 3.1078652246 3.1078652246 3.1078652246 3.0932710339 3.0786768432 3.0786768432 3.0786768432 3.0932710339 
3.0932710339 3.1078652246 3.1078652246 3.0932710339 3.0786768432 3.0786768432 3.0932710339 3.1078652246 3.1078652246 
3.1078652246 3.0932710339 3.0786768432 3.0786768432 3.0786768432 3.0932710339 3.1078652246 3.1078652246 3.1078652246 
3.0932710339 3.0786768432 3.0786768432 3.0786768432 3.0932710339 3.1078652246 3.1078652246 3.1078652246 3.0932710339 
3.0786768432 3.0786768432 3.0932710339 3.1078652246 3.1078652246 3.1078652246 3.1078652246 3.0932710339 3.0786768432 
3.0786768432 3.0786768432 3.0932710339 3.1078652246 3.1078652246 3.0932710339 3.0786768432 3.0786768432 3.0786768432 
3.0932710339 3.1078652246 3.1078652246 3.1078652246 3.0932710339 3.0786768432 3.0786768432 3.0932710339 3.1078652246 
3.1078652246 3.0932710339 3.0786768432 3.0786768432 3.0786768432 3.0932710339 3.1078652246 3.1078652246 3.1078652246 
3.0932710339 3.0786768432 3.0786768432 3.0786768432 3.0932710339 3.0932710339 3.1078652246 3.1078652246 3.1078652246 
3.0932710339 3.0786768432 3.0786768432 3.0932710339 3.1078652246 3.1078652246 3.1078652246 3.0932710339 3.0786768432 
3.0786768432 3.0932710339 3.1078652246 3.1078652246 3.1078652246 3.0932710339 3.0786768432 3.0786768432 3.0786768432 
3.0786768432 3.0932710339 3.1078652246 3.1078652246 3.0932710339 3.0932710339 3.0786768432 3.0786768432 3.0932710339 
3.1078652246 3.1078652246 3.1078652246 3.0932710339 3.0786768432 3.0786768432 3.0932710339 3.1078652246 3.1078652246 
3.1078652246 3.0932710339 3.0786768432 3.0786768432 3.0786768432 3.0932710339 3.1078652246 3.1078652246 3.0932710339 
3.0786768432 3.0786768432 3.0786768432 3.0932710339 3.0932710339 3.1078652246 3.1078652246 3.0932710339 3.0786768432 
3.0786768432 3.0932710339 3.1078652246 3.1078652246 3.1078652246 3.1078652246 3.0932710339 3.0786768432 3.0786768432 
3.0786768432 3.0932710339 3.1078652246 3.1078652246 3.0932710339 3.0786768432 3.0786768432 3.0932710339 3.1078652246 
3.1078652246 3.0932710339 3.0786768432 3.0786768432 3.0786768432 3.0932710339 3.1078652246 3.1078652246 3.0932710339 
3.0786768432 3.0786768432 3.0932710339 3.1078652246 3.1078652246 3.1078652246 3.1078652246 3.0932710339 3.0786768432 
3.0786768432 3.0932710339 3.1078652246 3.1078652246 3.0932710339 3.0786768432 3.0786768432 3.0932710339 3.1078652246 
3.1078652246 3.0932710339 3.0786768432 3.0786768432 3.0932710339 3.1078652246 3.1078652246 3.1078652246 3.0932710339 
3.0786768432 3.0786768432 3.0932710339 3.0932710339 3.1078652246 3.1078652246 3.0932710339 3.0786768432 3.0786768432 
3.0786768432 3.0932710339 3.1078652246 3.1078652246 3.0932710339 3.0786768432 3.0786768432 3.0786768432 3.0932710339 
3.1078652246 3.1078652246 3.1078652246 3.1078652246 3.0932710339 3.0786768432 3.0786768432 3.0932710339 3.1078652246 
3.1078652246 3.0932710339 3.0786768432 3.0786768432 3.0932710339 3.1078652246 3.1078652246 3.0932710339 3.0786768432 
3.0786768432 3.0932710339 3.1078652246 3.1078652246 3.1078652246 3.0932710339 3.0786768432 3.0786768432 3.0932710339 
3.1078652246 3.1078652246 3.0932710339 3.0786768432 3.0786768432 3.0932710339 3.1078652246 3.1078652246 3.0932710339 
3.0786768432 3.0786768432 3.0932710339 3.1078652246 3.1224594153 3.1224594153 3.1224594153 3.1078652246 3.1078652246 
3.0932710339 3.0786768432 3.0786768432 3.0932710339 3.0932710339 3.1078652246 3.1078652246 3.1224594153 3.1224594153 
3.1224594153 3.1224594153 3.1224594153 3.1224594153 3.1224594153 3.1078652246 3.0932710339 3.0932710339 3.0786768432 
3.0786768432 3.0932710339 3.1078652246 3.1224594153 3.1224594153 3.1224594153 3.1224594153 3.1224594153 3.1078652246 
3.0932710339 3.0786768432 3.0786768432 3.0932710339 3.1078652246 3.1224594153 3.1224594153 3.1224594153 3.1224594153 
3.1078652246 3.0932710339 3.0786768432 3.0786768432 3.0932710339 3.1078652246 3.1224594153 3.1224594153 3.1224594153 
3.1078652246 3.0932710339 3.0786768432 3.0786768432 3.0786768432 3.0932710339 3.1078652246 3.1078652246 3.1224594153 
3.1224594153 3.1224594153 3.1078652246 3.0932710339 3.0786768432 3.0786768432 3.0932710339 3.1078652246 3.1224594153 
3.1224594153 3.1224594153 3.1224594153 3.1078652246 3.0932710339 3.0786768432 3.0786768432 3.0786768432 3.0786768432 
3.0786768432 3.0786768432 3.0932710339 3.1078652246 3.1224594153 3.1224594153 3.1078652246 3.1078652246 3.0932710339 
3.0786768432 3.0786768432 3.0786768432 3.0786768432 3.0640826525 3.0640826525 3.0640826525 3.0640826525 3.0640826525 
3.0640826525 3.0640826525 3.0786768432 3.0932710339 3.1078652246 3.1078652246 3.1224594153 3.1224594153 3.1224594153 
3.1078652246 3.0932710339 3.0786768432 3.0786768432 3.0786768432 3.0786768432 3.0786768432 3.0786768432 3.0640826525 
3.0640826525 3.0640826525 3.0640826525 3.0786768432 3.0932710339 3.0932710339 3.1078652246 3.1224594153 3.1224594153 
3.1224594153 3.1078652246 3.0932710339 3.0786768432 3.0786768432 3.0786768432 3.0786768432 3.0786768432 3.0640826525 
3.0640826525 3.0640826525 3.0786768432 3.0932710339 3.1078652246 3.1224594153 3.1224594153 3.1224594153 3.1078652246 
3.0932710339 3.0786768432 3.0786768432 3.0786768432 3.0786768432 3.0786768432 3.0786768432 3.0786768432 3.0640826525 
3.0640826525 3.0640826525 3.0640826525 3.0786768432 3.0932710339 3.1078652246 3.1224594153 3.1224594153 3.1224594153 
3.1078652246 3.0932710339 3.0786768432 3.0786768432 3.0786768432 3.0786768432 3.0786768432 3.0640826525 3.0640826525 
3.0786768432 3.0932710339 3.1078652246 3.1078652246 3.1224594153 3.1224594153 3.1224594153 3.1078652246 3.0932710339 
3.0786768432 3.0786768432 3.0786768432 3.0786768432 3.0640826525 3.0640826525 3.0640826525 3.0640826525 3.0786768432 
3.0932710339 3.1078652246 3.1224594153 3.1224594153 3.1078652246 3.0932710339 3.0786768432 3.0786768432 3.0786768432 
3.0786768432 3.0640826525 3.0640826525 3.0786768432 3.0932710339 3.1078652246 3.1224594153 3.1224594153 3.1224594153 
3.1224594153 3.1078652246 3.0932710339 3.0786768432 3.0786768432 3.0786768432 3.0786768432 3.0640826525 3.0640826525 
3.0786768432 3.0932710339 3.1078652246 3.1224594153 3.1224594153 3.1078652246 3.1078652246 3.0932710339 3.0786768432 
3.0786768432 3.0786768432 3.0786768432 3.0640826525 3.0640826525 3.0640826525 3.0640826525 3.0786768432 3.0932710339 
3.1078652246 3.1224594153 3.1224594153 3.1224594153 3.1078652246 3.0932710339 3.0786768432 3.0786768432 3.0786768432 
3.0786768432 3.0640826525 3.0640826525 3.0786768432 3.0932710339 3.1078652246 3.1078652246 3.1224594153 3.1224594153 
3.1078652246 3.0932710339 3.0786768432 3.0786768432 3.0786768432 3.0640826525 3.0640826525 3.0640826525 3.0640826525 
3.0786768432 3.0932710339 3.0932710339 3.1078652246 3.1224594153 3.1224594153 3.1224594153 3.1078652246 3.0932710339 
3.0786768432 3.0786768432 3.0786768432 3.0786768432 3.0640826525 3.0640826525 3.0786768432 3.0932710339 3.1078652246 
3.1224594153 3.1224594153 3.1224594153 3.1078652246 3.0932710339 3.0786768432 3.0786768432 3.0786768432 3.0640826525 
3.0640826525 3.0786768432 3.0932710339 3.1078652246 3.1224594153 3.1224594153 3.1078652246 3.0932710339 3.0786768432 
3.0786768432 3.0786768432 3.0640826525 3.0640826525 3.0786768432 3.0932710339 3.1078652246 3.1078652246 3.1224594153 
3.1224594153 3.1224594153 3.1078652246 3.0932710339 3.0786768432 3.0786768432 3.0786768432 3.0786768432 3.0640826525 
3.0640826525 3.0786768432 3.0932710339 3.1078652246 3.1224594153 3.137053606 3.137053606 3.137053606 3.137053606 
3.137053606 3.1224594153 3.1224594153 3.1078652246 3.0932710339 3.0786768432 3.0786768432 3.0786768432 3.0786768432 
3.0640826525 3.0640826525 3.0640826525 3.0640826525 3.0786768432 3.0932710339 3.1078652246 3.1224594153 3.1224594153 
3.137053606 3.137053606 3.137053606 3.1224594153 3.1078652246 3.0932710339 3.0786768432 3.0786768432 3.0786768432 
3.0640826525 3.0640826525 3.0786768432 3.0932710339 3.1078652246 3.1078652246 3.1224594153 3.137053606 3.137053606 
3.137053606 3.137053606 3.1224594153 3.1078652246 3.0932710339 3.0786768432 3.0786768432 3.0786768432 3.0786768432 
3.0786768432 3.0640826525 3.0640826525 3.0786768432 3.0932710339 3.1078652246 3.1224594153 3.137053606 3.137053606 
3.137053606 3.1224594153 3.1078652246 3.0932710339 3.0786768432 3.0786768432 3.0786768432 3.0640826525 3.0494884618 
3.0494884618 3.0494884618 3.0640826525 3.0786768432 3.0932710339 3.0932710339 3.1078652246 3.1224594153 3.1224594153 
3.137053606 3.137053606 3.137053606 3.1224594153 3.1078652246 3.0932710339 3.0786768432 3.0786768432 3.0786768432 
3.0640826525 3.0494884618 3.0494884618 3.0494884618 3.0494884618 3.0494884618 3.0640826525 3.0786768432 3.0932710339 
3.1078652246 3.1224594153 3.137053606 3.137053606 3.137053606 3.1224594153 3.1078652246 3.0932710339 3.0786768432 
3.0786768432 3.0786768432 3.0786768432 3.0640826525 3.0494884618 3.0494884618 3.0494884618 3.0640826525 3.0786768432 
3.0932710339 3.1078652246 3.1078652246 3.1224594153 3.137053606 3.137053606 3.137053606 3.137053606 3.1224594153 
3.1078652246 3.0932710339 3.0932710339 3.0786768432 3.0786768432 3.0786768432 3.0640826525 3.0640826525 3.0494884618 
3.0494884618 3.0494884618 3.0494884618 3.0640826525 3.0786768432 3.0932710339 3.1078652246 3.1224594153 3.1224594153 
3.137053606 3.137053606 3.1224594153 3.1078652246 3.1078652246 3.0932710339 3.0786768432 3.0786768432 3.0786768432 
3.0640826525 3.0494884618 3.0494884618 3.0640826525 3.0786768432 3.0932710339 3.1078652246 3.1224594153 3.137053606 
3.137053606 3.137053606 3.137053606 3.1224594153 3.1078652246 3.0932710339 3.0786768432 3.0786768432 3.0786768432 
3.0786768432 3.0786768432 3.0640826525 3.0494884618 3.0494884618 3.0494884618 3.0640826525 3.0786768432 3.0932710339 
3.0932710339 3.1078652246 3.1078652246 3.1224594153 3.137053606 3.137053606 3.137053606 3.1224594153 3.1224594153 
3.1078652246 3.0932710339 3.0786768432 3.0786768432 3.0786768432 3.0640826525 3.0494884618 3.0494884618 3.0494884618 
3.0640826525 3.0786768432 3.0932710339 3.1078652246 3.1224594153 3.1224594153 3.137053606 3.137053606 3.1224594153 
3.1078652246 3.0932710339 3.0786768432 3.0786768432 3.0786768432 3.0640826525 3.0494884618 3.0494884618 3.0494884618 
3.0640826525 3.0786768432 3.0932710339 3.1078652246 3.1224594153 3.137053606 3.137053606 3.1224594153 3.1078652246 
3.0932710339 3.0786768432 3.0786768432 3.0786768432 3.0786768432 3.0640826525 3.0494884618 3.0494884618 3.0640826525 
3.0786768432 3.0932710339 3.1078652246 3.1224594153 3.137053606 3.137053606 3.137053606 3.137053606 3.1224594153 
3.1078652246 3.0932710339 3.0786768432 3.0786768432 3.0786768432 3.0640826525 3.0494884618 3.0494884618 3.0494884618 
3.0640826525 3.0786768432 3.0932710339 3.1078652246 3.1078652246 3.1224594153 3.137053606 3.137053606 3.1224594153 
3.1078652246 3.1078652246 3.0932710339 3.0786768432 3.0786768432 3.0786768432 3.0786768432 3.0786768432 3.0640826525 
3.0494884618 3.0494884618 3.0640826525 3.0786768432 3.0786768432 3.0932710339 3.0932710339 3.1078652246 3.1224594153 
3.1224594153 3.137053606 3.137053606 3.1224594153 3.1078652246 3.0932710339 3.0786768432 3.0786768432 3.0786768432 
3.0786768432 3.0640826525 3.0640826525 3.0494884618 3.0348942711 3.0348942711 3.0348942711 3.0348942711 3.0494884618 
3.0640826525 3.0786768432 3.0932710339 3.1078652246 3.1224594153 3.137053606 3.137053606 3.137053606 3.1224594153 
3.1078652246 3.0932710339 3.0786768432 3.0640826525 3.0640826525 3.0640826525 3.0786768432 3.0786768432 3.0786768432 
3.0640826525 3.0494884618 3.0348942711 3.0348942711 3.0348942711 3.0348942711 3.0494884618 3.0494884618 3.0640826525 
3.0786768432 3.0932710339 3.1078652246 3.1224594153 3.137053606 3.137053606 3.1224594153 3.1078652246 3.0932710339 
3.0786768432 3.0640826525 3.0640826525 3.0640826525 3.0640826525 3.0640826525 3.0786768432 3.0786768432 3.0786768432 
3.0786768432 3.0640826525 3.0494884618 3.0348942711 3.0348942711 3.0348942711 3.0348942711 3.0494884618 3.0640826525 
3.0786768432 3.0932710339 3.1078652246 3.1224594153 3.137053606 3.137053606 3.137053606 3.1224594153 3.1224594153 
3.1078652246 3.0932710339 3.0786768432 3.0640826525 3.0640826525 3.0640826525 3.0786768432 3.0786768432 3.0786768432 
3.0786768432 3.0786768432 3.0640826525 3.0494884618 3.0348942711 3.0348942711 3.0494884618 3.0640826525 3.0640826525 
3.0786768432 3.0932710339 3.1078652246 3.1224594153 3.137053606 3.137053606 3.1224594153 3.1078652246 3.0932710339 
3.0786768432 3.0786768432 3.0640826525 3.0640826525 3.0640826525 3.0640826525 3.0786768432 3.0786768432 3.0786768432 
3.0786768432 3.0786768432 3.0640826525 3.0494884618 3.0348942711 3.0348942711 3.0494884618 3.0640826525 3.0640826525 
3.0786768432 3.0932710339 3.1078652246 3.1078652246 3.1224594153 3.137053606 3.137053606 3.137053606 3.1224594153 
3.1078652246 3.0932710339 3.0932710339 3.0786768432 3.0640826525 3.0640826525 3.0640826525 3.0786768432 3.0786768432 
3.0786768432 3.0640826525 3.0494884618 3.0494884618 3.0348942711 3.0348942711 3.0203000804 3.0203000804 3.0203000804 
3.0203000804 3.0348942711 3.0348942711 3.0494884618 3.0640826525 3.0786768432 3.0786768432 3.0932710339 3.1078652246 
3.1224594153 2.9619233175 2.9619233175 2.9765175082 2.9765175082 2.991111699 2.991111699 3.0057058897 3.0057058897 
3.0203000804 3.0203000804 3.0348942711 3.0348942711 3.0494884618 3.0494884618 3.0640826525 3.0640826525 3.0786768432 
3.0786768432 3.0932710339 3.0932710339 3.1078652246 3.1078652246 3.1224594153 3.1224594153 3.137053606 2.9619233175 
2.9765175082 2.991111699 3.0057058897 3.0203000804 3.0348942711 3.0494884618 3.0640826525 3.0786768432 3.0932710339 
3.1078652246 3.1224594153 3.137053606 2.9619233175 2.9765175082 2.991111699 3.0057058897 3.0203000804 3.0348942711 
3.0494884618 3.0640826525 3.0786768432 3.0932710339 3.1078652246 3.1224594153 3.137053606 2.9619233175 2.9765175082 
2.991111699 3.0057058897 3.0203000804 3.0348942711 3.0494884618 3.0640826525 3.0786768432 3.0932710339 3.1078652246 
3.1224594153 3.137053606 2.9619233175 2.9765175082 2.991111699 3.0057058897 3.0203000804 3.0348942711 3.0494884618 
3.0640826525 3.0786768432 3.0932710339 3.1078652246 3.1224594153 3.137053606 2.9619233175 2.9765175082 2.991111699 
3.0057058897 3.0203000804 3.0348942711 3.0494884618 3.0640826525 3.0786768432 3.0932710339 3.1078652246 3.1224594153 
3.137053606 2.9619233175 2.9765175082 2.991111699 3.0057058897 3.0203000804 3.0348942711 3.0494884618 3.0640826525 
3.0786768432 3.0932710339 3.1078652246 3.1224594153 3.137053606 2.9619233175 2.9765175082 2.991111699 3.0057058897 
3.0203000804 3.0348942711 3.0494884618 3.0640826525 3.0786768432 3.0932710339 3.1078652246 3.1224594153 3.137053606 
2.9619233175 2.9765175082 2.991111699 3.0057058897 3.0203000804 3.0348942711 3.0494884618 3.0640826525 3.0786768432 
3.0932710339 3.1078652246 3.1224594153 3.137053606 2.9619233175 2.9765175082 2.991111699 3.0057058897 3.0203000804 
3.0348942711 3.0494884618 3.0640826525 3.0786768432 3.0932710339 3.1078652246 3.1224594153 3.137053606 3.137053606 
3.137053606 3.1224594153 3.1078652246 3.0932710339 3.0786768432 3.0640826525 3.0640826525 3.0786768432 3.0786768432 
3.0640826525 3.0494884618 3.0348942711 3.0203000804 3.0203000804 3.0203000804 3.0348942711 3.0494884618 3.0640826525 
3.0786768432 3.0932710339 3.1078652246 2.9619233175 2.9619233175 2.9765175082 2.9765175082 2.991111699 2.991111699 
3.0057058897 3.0057058897 3.0203000804 3.0203000804 3.0348942711 3.0348942711 3.0494884618 3.0494884618 3.0640826525 
3.0640826525 3.0786768432 3.0786768432 3.0932710339 3.0932710339 3.1078652246 3.1078652246 2.9619233175 2.9765175082 
2.991111699 3.0057058897 3.0203000804 3.0348942711 3.0494884618 3.0640826525 3.0786768432 3.0932710339 3.1078652246 