# vtk DataFile Version 4.2
vtk output
ASCII
DATASET UNSTRUCTURED_GRID
POINTS 1740 double
2144.07 -94.44003 0 2911 0 0 16.54298 -37.82236 0 
5.09149 -21.30132 0 1.27433 -10.75385 0 0 0 0 
2.54575 15.14293 0 6.36291 23.76126 0 14.00014 34.89063 0 
30.50239 50.70793 0 33.39435 -52.93479 0 2050.91 -103.7862 0 
60.1465 -69.72165 0 88.83633 -83.2817 0 118.7656 -94.71113 0 
153.4168 -105.7022 0 199.5806 -117.771 0 261.4466 -130.7139 0 
345.846 -144.1892 0 460.3522 -157.0592 0 608.4185 -167.1903 0 
783.2313 -172.4016 0 941.0559 -172.4533 0 1063.409 -170.1096 0 
1164.153 -166.8746 0 1263.449 -162.682 0 1375.468 -156.8941 0 
1513.293 -148.414 0 1665.281 -137.5317 0 1791.864 -127.3721 0 
2195.451 -89.09491 0 2273.924 -80.67077 0 2383.731 -68.3513 0 
2517.64 -52.47337 0 2649.227 -35.9232 0 2740.773 -23.82991 0 
2804.387 -15.13419 0 2848.802 -8.916218 0 2881.944 -4.196067 0 
56.61447 67.79801 0 84.09687 81.25172 0 112.4783 92.48395 0 
142.1748 102.3504 0 174.8563 111.6168 0 213.124 120.8806 0 
260.3759 130.5151 0 324.6539 141.1779 0 418.1422 152.9178 0 
535.6656 162.9871 0 690.9154 170.4255 0 902.6513 172.7852 0 
1100.32 169.0517 0 1270.99 162.3262 0 1462.794 151.6837 0 
1631.287 140.0952 0 1747.993 131 0 1922.788 115.9027 0 
2069.56 101.951 0 2128.804 96.0021 0 2297.147 78.11721 0 
2414.379 64.80104 0 2554.023 47.99319 0 2673.693 32.73885 0 
2757.97 21.50315 0 2814.297 13.7575 0 2852.02 8.460961 0 
2882.272 4.148909 0 1791.052 127.4402 0 1366.894 157.3738 0 
1444.38 -152.8302 0 1547.039 146.1296 0 1589.287 -143.1614 0 
1878.731 119.8675 0 1997.072 108.9828 0 1185.654 166.0472 0 
1882.536 -119.5292 0 1971.323 -111.4145 0 1684.777 136.0292 0 
2099.317 -98.9855 0 2234.809 84.9091 0 2181.695 90.53914 0 
1728.573 -132.5703 0 1718.815 133.3509 0 1834.825 123.7132 0 
1960.305 112.4444 0 2033.69 105.4648 0 2099.184 98.99892 0 
2214.291 -77.527285145 396.8421 2955.512 12.646118333 396.8421 158.0786 -29.798128986 396.8421 
147.0109 -13.955299686 396.8421 143.3217 -3.8241809422 396.8421 142.09 6.517553026 396.8421 
144.5505 21.100573962 396.8421 148.2398 29.411282531 396.8421 155.621 40.155979198 396.8421 
171.5701 55.452489676 396.8421 174.3652 -44.259626381 396.8421 2124.254 -86.581374103 396.8421 
200.2206 -60.284871863 396.8421 227.9488 -73.195712202 396.8421 256.8748 -84.050556971 396.8421 
290.3647 -94.461366629 396.8421 334.981 -105.85508092 396.8421 394.7733 -118.01741237 396.8421 
476.3434 -130.59074629 396.8421 587.0114 -142.453372 396.8421 730.1145 -151.55269152 396.8421 
899.0676 -155.8436799 396.8421 1051.602 -155.2861739 396.8421 1169.853 -152.59365442 396.8421 
1267.221 -149.14430861 396.8421 1363.188 -144.80052501 396.8421 1471.452 -138.90958523 396.8421 
1604.657 -130.39680226 396.8421 1751.55 -119.59407345 396.8421 1873.891 -109.59124407 396.8421 
2263.949 -72.362882186 396.8421 2339.792 -64.242076426 396.8421 2445.918 -52.403697651 396.8421 
2575.338 -37.20459547 396.8421 2702.515 -21.424115854 396.8421 2790.992 -9.9288015689 396.8421 
2852.473 -1.6798620506 396.8421 2895.4 4.2105688235 396.8421 2927.431 8.6778283826 396.8421 
196.807 72.017705228 396.8421 223.3682 85.089547265 396.8421 250.7983 96.027461571 396.8421 
279.4994 105.65665526 396.8421 311.0855 114.72163204 396.8421 348.0705 123.80883101 396.8421 
393.7383 133.29262494 396.8421 455.8617 143.84105302 396.8421 546.2162 155.55317397 396.8421 
659.8003 165.75716149 396.8421 809.846 173.57874362 396.8421 1014.485 176.71374401 396.8421 
1205.528 173.87051872 396.8421 1370.477 167.98864743 396.8421 1555.851 158.33350618 396.8421 
1718.696 147.61774582 396.8421 1831.49 139.11862329 396.8421 2000.426 124.88653093 396.8421 
2142.278 111.6251254 396.8421 2199.537 105.94351402 396.8421 2362.236 88.776726432 396.8421 
2475.539 75.920718483 396.8421 2610.501 59.613952275 396.8421 2726.16 44.745623116 396.8421 
2807.613 33.756606385 396.8421 2862.05 26.163882927 396.8421 2898.509 20.964315424 396.8421 
2927.749 16.726840009 396.8421 1873.106 135.77554628 396.8421 1463.165 163.52708536 396.8421 
1538.054 -134.8166961 396.8421 1637.272 153.21661483 396.8421 1678.104 -125.16905198 396.8421 
1957.846 128.63715308 396.8421 2072.22 118.32082024 396.8421 1288 171.28165449 396.8421 
1961.524 -101.91093421 396.8421 2047.334 -93.996072363 396.8421 1770.393 143.8263699 396.8421 
2171.038 -81.926812282 396.8421 2301.989 95.310210321 396.8421 2250.655 100.71300856 396.8421 
1812.721 -114.70079963 396.8421 1803.29 141.32152863 396.8421 1915.411 132.26655339 396.8421 
2036.686 121.60816783 396.8421 2107.61 114.9738098 396.8421 2170.909 108.80760972 396.8421 
2284.511 -63.183884306 793.6842 3000.027 22.984801221 793.6842 299.6143 -21.449764458 793.6842 
288.9304 -6.2417179791 793.6842 285.3691 3.4963747997 793.6842 284.1801 13.44657789 793.6842 
286.5551 27.493479143 793.6842 290.1167 35.507334219 793.6842 297.2417 45.878035547 793.6842 
312.6379 60.662390279 793.6842 315.336 -35.308346514 793.6842 2197.597 -71.908074193 793.6842 
340.2947 -50.636368791 793.6842 367.0612 -62.960200663 793.6842 394.9839 -73.301457405 793.6842 
427.3123 -83.199677174 793.6842 470.3812 -94.005562563 793.6842 528.0998 -105.50089895 793.6842 
606.8411 -117.32339674 793.6842 713.6708 -128.37909823 793.6842 851.8104 -136.69907149 793.6842 
1014.904 -140.35778899 793.6842 1162.147 -139.44007704 793.6842 1276.298 -136.58275532 793.6842 
1370.288 -133.06376811 793.6842 1462.927 -128.70450704 793.6842 1567.436 -122.85488999 793.6842 
1696.021 -114.47196016 793.6842 1837.82 -103.9068872 793.6842 1955.917 -94.173406147 793.6842 
2332.447 -58.215462988 793.6842 2405.659 -50.4132421 793.6842 2508.105 -39.060218891 793.6842 
2633.037 -24.516441976 793.6842 2755.801 -9.4496474577 793.6842 2841.209 1.5070491999 793.6842 
2900.561 9.360764435 793.6842 2941.997 14.964881553 793.6842 2972.917 19.212829663 793.6842 
336.9995 76.702116364 793.6842 362.6396 89.383137695 793.6842 389.1182 100.01226307 793.6842 
416.8239 109.38527779 793.6842 447.3145 118.22446642 793.6842 483.0167 127.10275935 793.6842 
527.1009 136.39128963 793.6842 587.0697 146.75803569 793.6842 674.2905 158.33325811 793.6842 
783.9349 168.51949846 793.6842 928.7766 176.50265483 793.6842 1126.317 180.08640797 793.6842 
1310.735 177.8162109 793.6842 1469.963 172.50414923 793.6842 1648.908 163.53871784 793.6842 
1806.105 153.45164039 793.6842 1914.987 145.39253786 793.6842 2078.064 131.81791045 793.6842 
2214.996 119.10120933 793.6842 2270.269 113.63657417 793.6842 2427.326 97.07495535 793.6842 
2536.699 84.629250347 793.6842 2666.98 68.7984776 793.6842 2778.628 54.326845703 793.6842 
2857.255 43.611107028 793.6842 2909.806 36.198337799 793.6842 2945.001 31.118143739 793.6842 
2973.224 26.975762128 793.6842 1955.16 142.2118188 793.6842 1559.437 168.38262208 793.6842 
1631.729 -118.81637292 793.6842 1727.505 158.73453378 793.6842 1766.921 -109.3510615 793.6842 
2036.96 135.40335805 793.6842 2147.368 125.52897477 793.6842 1390.347 175.50551822 793.6842 
2040.511 -86.72450443 793.6842 2123.346 -79.066859772 793.6842 1856.009 149.86178418 793.6842 
2242.759 -67.420834025 793.6842 2369.167 103.38642034 793.6842 2319.614 108.5980707 793.6842 
1896.869 -99.140421184 793.6842 1887.765 147.48536772 793.6842 1995.998 138.86776089 793.6842 
2113.066 128.67964918 793.6842 2181.531 122.31762947 793.6842 2242.634 116.39241811 793.6842 
2354.732 -50.883086578 1190.526 3044.539 31.458584568 1190.526 441.15 -13.166909306 1190.526 
430.8497 1.4386328187 1190.526 427.4164 10.800813663 1190.526 426.2701 20.374382161 1190.526 
428.5601 33.901930227 1190.526 431.9934 41.626201337 1190.526 438.8627 51.629756923 1190.526 
453.7057 65.906305168 1190.526 456.3069 -26.458724443 1190.526 2270.94 -59.255196502 1190.526 
480.3688 -41.138118221 1190.526 506.1737 -52.921898206 1190.526 533.0934 -62.79555188 1190.526 
564.26 -72.232042656 1190.526 605.7815 -82.515208452 1190.526 661.4265 -93.427500794 1190.526 
737.3385 -104.6097888 1190.526 840.33 -115.00268919 1190.526 973.5064 -122.72159868 1190.526 
1130.74 -125.94731575 1190.526 1272.693 -124.8378376 1190.526 1382.742 -121.93845172 1190.526 
1473.356 -118.44532557 1190.526 1562.666 -114.15928833 1190.526 1663.42 -108.44403579 1190.526 
1787.385 -100.29507772 1190.526 1924.09 -90.067463841 1190.526 2037.944 -80.673553833 1190.526 
2400.946 -46.119257747 1190.526 2471.527 -38.643756299 1190.526 2570.292 -27.776587441 1190.526 
2690.735 -13.87075156 1190.526 2809.091 0.51984003403 1190.526 2891.43 10.976693126 1190.526 
2948.647 18.468504433 1190.526 2988.597 23.812721107 1190.526 3018.403 27.862853404 1190.526 
477.1918 81.41738064 1190.526 501.9109 93.698393968 1190.526 527.4382 104.00574113 1190.526 
554.1485 113.1063405 1190.526 583.5435 121.69956783 1190.526 617.963 130.34317648 1190.526 
660.4633 139.40166687 1190.526 718.2775 149.53539343 1190.526 802.3645 160.89256998 1190.526 
908.0698 170.95041155 1190.526 1047.707 178.93837567 1190.526 1238.151 182.74570745 1190.526 
1415.942 180.8343963 1190.526 1569.449 175.9100823 1190.526 1741.965 167.43919801 1190.526 
1893.514 157.82209453 1190.526 1998.484 150.10238161 1190.526 2155.702 137.05197754 1190.526 
2287.714 124.78703278 1190.526 2341.001 119.50738963 1190.526 2492.415 103.47923718 1190.526 
2597.858 91.412167388 1190.526 2723.46 76.040988432 1190.526 2831.095 61.9719475 1190.526 
2906.899 51.545395441 1190.526 2957.56 44.328909421 1190.526 2991.49 39.381615862 1190.526 
3018.699 35.346711736 1190.526 2037.214 147.04922813 1190.526 1655.708 172.02946363 1190.526 
1725.403 -104.51343694 1190.526 1817.738 162.86658631 1190.526 1855.738 -95.332974468 1190.526 
2116.075 140.50376685 1190.526 2222.516 130.99045228 1190.526 1492.694 178.71023623 1190.526 
2119.498 -73.498480586 1190.526 2199.357 -66.132786906 1190.526 1941.625 154.3864871 1190.526 
2314.479 -54.947840815 1190.526 2436.346 109.59181319 1190.526 2388.573 114.63527422 1190.526 
1981.017 -85.464310511 1190.526 1972.24 152.10939076 1190.526 2076.584 143.83587447 1190.526 
[...]
POINT_DATA 1740
FIELD FieldData 1
Pressure 1 1740 double
3.1046880777 3.0186999431 3.0093252927 2.9857167115 2.9789147889 2.959705753 2.9718782879 2.9890611476 3.0201120319 
3.03431734 3.0107148388 3.1086347172 3.0333508726 3.0477996708 3.0650567352 3.0643504746 3.0816535914 3.0869277331 
3.1077185331 3.1129891535 3.1314257077 3.1396905125 3.1417486651 3.1475024833 3.1426522258 3.1386719557 3.1353319834 
3.1317559552 3.125128136 3.1194563033 3.1021298432 3.0987265103 3.0931504777 3.0850830634 3.0742353977 3.0641907946 
3.0543046589 3.0456593948 3.0372758849 3.0701944666 3.0819061099 3.0944111382 3.1076692509 3.114007097 3.1204865029 
3.1277678115 3.1354687242 3.1511615454 3.1635504937 3.1806775621 3.1915906621 3.1981555154 3.2041273305 3.2099665671 
3.2139955186 3.2171984949 3.2183149413 3.1672677413 3.0985507465 3.0867365217 3.0810369831 3.0723650744 3.0627536413 
3.0522818246 3.0420082584 3.0343204192 3.032823116 3.217031955 3.2077581816 3.1341548764 3.211325086 3.1284363474 
3.2176110181 3.219586133 3.2049549871 3.1157126414 3.1120548688 3.2151326126 3.1065455885 3.0907604828 3.0928558235 
3.1220764611 3.2168013978 3.2174178171 3.2196599266 3.2261399637 3.0899718445 3.1017168844 3.0236505557 3.0275894493 
3.0010807116 3.007876576 2.9864792281 2.993812293 3.0055798153 3.0340612224 3.0526006648 3.0351352025 3.105990982 
3.055457661 3.067905189 3.0811916002 3.0852815244 3.1005102505 3.1100332244 3.1231390565 3.1283459715 3.1384204804 
3.1426362863 3.1462830093 3.1464753121 3.1420527016 3.1374793616 3.1322557153 3.1280200841 3.1219622627 3.1166492845 
3.0994437266 3.0954101675 3.089765136 3.0818381092 3.0709356402 3.0608814894 3.0511389273 3.0435726194 3.02820205 
3.0857328825 3.1068541325 3.1190768878 3.1275381638 3.1367455973 3.1412762666 3.1468213884 3.1572187765 3.1689855364 
3.177706407 3.1873477545 3.1952296209 3.2015809388 3.2080398448 3.2115109969 3.2144458088 3.2171055883 3.2199982689 
3.0891971992 3.0977465649 3.0914402502 3.0852560406 3.0767508539 3.0661301058 3.0558917091 3.0457424844 3.0390869021 
3.0396938856 3.2177045672 3.2097276503 3.1310674553 3.2140479059 3.1246893752 3.2189045054 3.2208519303 3.2064753617 
3.1128185368 3.1092001197 3.2157483163 3.1040754652 3.0946734576 3.0968371402 3.1195015148 3.2164740912 3.2177215072 
3.217814786 3.1786844079 3.097133823 3.0997052477 3.0235139825 3.0278783622 3.0002587728 3.0022567886 2.9845464109 
2.9965720941 3.0102666651 3.0392223789 3.0604497899 3.0434324362 3.1039339439 3.0583239396 3.0773454317 3.0954073772 
3.102053196 3.1144022066 3.1226577612 3.1353493173 3.1414575557 3.1480619955 3.1503279445 3.1496785094 3.1477940527 
3.1418873065 3.1362041225 3.1310283857 3.1252749965 3.1199453028 3.1148089599 3.0973825445 3.0936271692 3.0877592813 
3.0799967441 3.0689614209 3.0587613065 3.0495554039 3.04235155 3.0286375843 3.093395726 3.1151132127 3.1335003446 
3.1424935046 3.1526887316 3.1614166723 3.1713228175 3.1756141976 3.1841222351 3.1940199983 3.1996877043 3.2053107631 
3.2077888154 3.2142894927 3.217196184 3.2178986883 3.2195751463 3.2233464262 3.0915519475 3.0924897988 3.0900997315 
3.0847688287 3.0769372756 3.0665116821 3.0567822324 3.0469352567 3.0398025575 3.0413943971 3.2202292447 3.2160956045 
3.1286217215 3.2178592208 3.1225705735 3.2210024139 3.2192123785 3.2117448177 3.11089283 3.1071834015 3.2182991067 
3.1021004223 3.0925811918 3.0934409099 3.1174969136 3.2187675313 3.2208195727 3.222759141 3.0857150857 3.0879146286 
3.0983223863 3.0233260707 3.0284426811 3.0001926139 3.0026452479 2.9827744937 2.9925745372 3.0072297972 3.0398631319 
3.0615617579 3.0428177385 3.1025345969 3.0632115626 3.080733374 3.0997132439 3.1086075663 3.1205454553 3.1290703736 
3.1411807258 3.1483228029 3.1542011796 3.1550474781 3.1530539527 3.1491004037 3.1423443148 3.1361665607 3.1304218454 
3.1245204933 3.1185236384 3.1134428518 3.0960807169 3.0923295073 3.0866977655 3.0789905205 3.0681398357 3.05798677 
3.0491380312 3.0419564232 3.0288413207 3.0974331655 3.1207932315 3.1360250476 3.1481076059 3.1556762475 3.1666475904 
3.1790118835 3.1888598118 3.1967629371 3.2063990184 3.2119036063 3.2166704584 3.2172492023 3.2228514547 3.2250949418 
3.2248777371 3.2256484258 3.2339102067 3.0908599987 3.091158436 3.0884725917 3.0834060322 3.0754360502 3.0653997135 
3.0558293694 3.0463929064 3.0390497012 3.0409572667 3.2259598085 3.224126867 3.1279225366 3.2251437835 3.121380746 
3.2262016632 3.0845152093 3.2202674979 3.1095952508 3.1056740648 3.2249607207 3.1006541621 3.0906794182 3.0911735831 
3.1160184396 3.2250023235 3.2263417396 3.1155141091 3.089010216 3.0909816347 3.0974718482 3.0227968258 3.0306547279 
3.0010864186 3.0081422767 2.9869856002 2.9947075324 3.0083229798 3.0420288419 3.0628476549 3.0440588801 3.1016065131 
3.0656533481 3.0830315885 3.0999672585 3.1098053767 3.122432528 3.1328510591 3.1438586001 3.1516920682 3.1579383877 
3.1576480993 3.1543824338 3.1490372884 3.1417543521 3.135268806 3.1292729092 3.123605263 3.1176798957 3.1123592483 
3.0952199768 3.0914698526 3.0859346721 3.0782784014 3.0676523127 3.0576667083 3.0489924717 3.0416970167 3.0291524355 
3.0989369177 3.1227884331 3.1377171606 3.1508217505 3.1598357445 3.1711932825 3.1825544914 3.188510703 3.1996310198 
3.2120853115 3.2207601857 3.2253135572 3.226469134 3.2310972073 3.2326863935 3.2322302083 3.232719648 3.1508816788 
3.0891202534 3.0888750248 3.086433058 3.0813829254 3.0734414151 3.0637373795 3.0543441498 3.0451413038 3.0378792367 
3.040044359 3.2329474802 3.2325480141 3.1270056595 3.2324882752 3.1205103076 3.2313149419 3.0885901942 3.2291010671 
3.1085664211 3.1046033489 3.2321495077 3.0995755599 3.0883715468 3.088899904 3.1150620559 3.2322404546 3.2331071175 
3.0868885913 3.0893011559 3.089131859 3.0967361215 3.0224965182 3.0317868865 3.0024922455 3.0101721584 2.9879397991 
2.996288504 3.0098366511 3.0430418566 3.0647928514 3.0450593127 3.1007375291 3.0668953632 3.0848879043 3.1009929923 
3.1112742075 3.1239586547 3.135129313 3.1464522222 3.154285797 3.1610794323 3.1597197159 3.1552118082 3.1485899187 
3.1409851075 3.1343999616 3.1283205303 3.1226853227 3.1167653557 3.1114155716 3.0944735602 3.0907194805 3.0852964606 
3.0776708498 3.0671799716 3.0572697813 3.0487161481 3.0413231192 3.0294105246 3.1005001009 3.1247057579 3.1397683393 
3.1529534628 3.162045811 3.1738945971 3.1865810631 3.1938352555 3.2052985897 3.2172182445 3.2276797997 3.2330403318 
3.23506754 3.2402933614 3.241570192 3.2401351133 3.2400529667 3.0805947936 3.0879340188 3.0871678909 3.0846672323 
3.0799918338 3.0724734943 3.0628880587 3.0536132521 3.044769789 3.0375508984 3.0397849673 3.2402157578 3.24088087 
3.1260494593 3.2408564466 3.1195960649 3.2406550421 3.0875107966 3.2377357164 3.1076525456 3.1037321852 3.2397331617 
3.0988478341 3.0864332494 3.0871019072 3.1141611204 3.2397506858 3.2403936061 3.0828341713 3.0876565476 3.0877506096 
3.0961657093 3.0226037364 3.0321595974 3.0026894529 3.0098065073 2.987468462 2.9962855187 3.0099532431 3.0432905914 
3.0653068952 3.0456198475 3.1001693747 3.0676022314 3.0858408815 3.1018715399 3.1124238066 3.1252196291 3.1368228325 
3.1482488067 3.1561575665 3.1633444488 3.1612412645 3.1557410942 3.1482105962 3.1404962959 3.1339025631 3.1278214332 
3.1220716166 3.1161323205 3.110823548 3.0939256389 3.090164138 3.0848237314 3.0772240197 3.0668181629 3.0569117379 
3.0484360867 3.0409514533 3.0295271921 3.1010646479 3.1255682754 3.141024109 3.1543344715 3.1637660599 3.1757152493 
3.1883708679 3.1963897577 3.2083652194 3.2213845137 3.2326920797 3.2395204274 3.2426857144 3.2486932703 3.2502896453 
3.2490201436 3.2482941748 3.084060324 3.0880428439 3.0869311933 3.0847850329 3.080220843 3.0729085583 3.0632853519 
3.0541100994 3.0453256183 3.038067714 3.0405015278 3.2481258176 3.2497174989 3.1254932195 3.2499866698 3.1189827705 
3.2495111377 3.0861491398 3.2457577438 3.107048972 3.1031493983 3.2483292596 3.0982446979 3.0864722008 3.0871276004 
3.1134585468 3.2479814745 3.2487519228 3.0852945116 3.0870233686 3.0879390819 3.0958122016 3.0227615778 3.0325593295 
3.002946992 3.0099376799 2.9876511379 2.9963694391 3.0099535735 3.043517112 3.0655286118 3.0460549677 3.0998744079 
3.0681209566 3.0863255331 3.1022938457 3.1130680339 3.1260492109 3.1380090003 3.1494334101 3.1574394015 3.1649542175 
3.1623701295 3.1559910267 3.1479143597 3.1401841714 3.1336230842 3.1275878533 3.1215650956 3.1157615367 3.1104118701 
3.0935852634 3.0898149993 3.0845633982 3.0769754079 3.0666169507 3.0566677096 3.0482528602 3.0406586623 3.029707316 
3.1013329072 3.1260485093 3.1416970651 3.1551380438 3.164724825 3.1767611229 3.1894945412 3.198134498 3.2103978026 
3.2239233115 3.2358786077 3.2439738896 3.2486525514 3.255363993 3.25768199 3.2572243749 3.2566041896 3.0872429592 
3.0891389258 3.0872298478 3.0843258284 3.0798916106 3.072884129 3.0635186742 3.0546155625 3.0459385454 3.0385642582 
3.0412876903 3.2564276425 3.2572908903 3.1250566673 3.257587869 3.1185907547 3.2327662726 3.0867473144 3.2521937508 
3.1066727822 3.1028622331 3.2567809423 3.0978732224 3.0861632477 3.0870143314 3.1130294982 3.2563345182 3.2615054862 
3.0913145229 3.0874754903 3.0895559685 3.0956613491 3.0228880158 3.0329710852 3.0032983092 3.0102139408 2.9879182435 
2.9966682115 3.0102105398 3.0438023284 3.065891802 3.0464557715 3.0996969045 3.0685064529 3.0869527452 3.1029057649 
3.113850407 3.1268579326 3.139051829 3.150474748 3.1586973047 3.1663104202 3.1633701189 3.156264069 3.1479196377 
3.1401530944 3.1335501123 3.1275474214 3.1214082193 3.1156236146 3.1102399866 3.0934170808 3.0896316421 3.084459605 
3.0768237748 3.0665571919 3.0564604385 3.0480991643 3.0404289145 3.0298002851 3.1016836931 3.1264966014 3.1423058801 
3.1558213294 3.1654870319 3.1775906935 3.1902947396 3.1993216244 3.2118552293 3.2256993327 3.2380006277 3.2472628564 
3.2528250739 3.2604079121 3.2642186845 3.2639079125 3.2640955963 3.0855147899 3.0893040272 3.0865443379 3.08305915 
3.0787994127 3.0721682741 3.0629627789 3.054268806 3.0458438954 3.0383368394 3.0414130659 3.2643108668 3.2625506036 
3.1249588992 3.2642309315 3.1184758356 3.2163614978 3.0862762541 3.2567831659 3.1065089355 3.1027613853 3.263809042 
3.0976347219 3.0848443989 3.0857471218 3.1128299002 3.2635920896 3.2650129696 3.0942750132 3.0872976688 3.090470205 
3.0956020798 3.0228216809 3.03333342 3.0036517203 3.0105571159 2.9881890648 2.9969616943 3.0105076767 3.04409702 
3.0662709734 3.0467502539 3.0995099241 3.0687752736 3.0873033931 3.1033649694 3.1144482759 3.1275223128 3.1398910759 
3.1514067802 3.1599177989 3.1675754214 3.1644116428 3.1567582481 3.1482308573 3.1403281566 3.1336916259 3.1276581098 
3.121538539 3.1156877849 3.1102278136 3.093349336 3.08957912 3.0844773753 3.0767832113 3.0665921218 3.0564286143 
3.0480989382 3.0403884478 3.0299348069 3.1020646517 3.1269454134 3.1428734362 3.1564226181 3.1661792838 3.1782966133 
3.1909787067 3.2002471755 3.2129903608 3.2270366779 3.2395530949 3.2491965195 3.2556156826 3.2638028669 3.2677263942 
3.2690727877 3.2695373538 3.0899218428 3.0868361551 3.0860008396 3.0819477036 3.0776931132 3.0711492898 3.0618619236 
3.0532061547 3.0449918921 3.037421018 3.0405374375 3.2697501067 3.2663567115 3.1250905683 3.2688899085 3.1185885782 
3.2444853771 3.087266084 3.2599299308 3.1065778897 3.1027521916 3.2692232024 3.0974891995 3.0840967898 3.0849844076 
3.1127991036 3.2692545575 3.2700331134 3.0996451736 3.0879148255 3.0872400837 3.0956533673 3.0223972054 3.0336493372 
3.003961459 3.0109191426 2.9884921819 2.99725154 3.0107786259 3.0444093116 3.0666549463 3.0468965988 3.0997026945 
3.0689142169 3.0875087713 3.1036503699 3.114854956 3.1279903543 3.1405071002 3.1522410916 3.1610271117 3.1687815664 
3.1655630369 3.1575318002 3.1488392212 3.1407361627 3.1340773876 3.1279613672 3.1219736987 3.1159767635 3.1104394182 
3.0934510994 3.0896494563 3.0845958596 3.0768598871 3.0667515349 3.0565423075 3.0482476373 3.0404799522 3.030268288 
3.1024800776 3.1273884072 3.1434213199 3.1569856234 3.1667928204 3.1789066394 3.1915727775 3.2009987663 3.213895004 
3.2280429841 3.240716235 3.2504997816 3.2572988325 3.2660436361 3.2702497655 3.2720009407 3.2730380944 3.0853724572 
3.0837429725 3.0832739617 3.0798291311 3.0753955025 3.0687780596 3.0596142541 3.0510448191 3.042978924 3.0355800054 
3.0384967048 3.2735818608 3.2687273737 3.1255317329 3.2716601585 3.1189251045 3.2707714394 3.0855898542 3.261831345 
3.1067993408 3.1030875692 3.2725775601 3.097480188 3.0816841242 3.0821758997 3.1129866352 3.2726956919 3.2738894292 
3.0931221085 3.0835395765 3.0838425258 3.0959215667 3.0217809964 3.0338957033 3.0041925541 3.0112783383 2.9888078323 
2.9975525096 3.0110591226 3.0447617651 3.0670606842 3.0469594534 3.0999967139 3.0689596615 3.0875280152 3.1037655424 
3.1151155643 3.1283113446 3.1409712589 3.1529847025 3.1621339435 3.1700161178 3.1669481359 3.1586849433 3.1497572064 
3.1414018186 3.1347085854 3.1284720446 3.1224563715 3.1163233393 3.110749088 3.0937021036 3.0898638558 3.0848153055 
3.0770243365 3.066973601 3.0567052272 3.0484262664 3.0406262728 3.0308133779 3.1029604056 3.1278701923 3.143984792 
3.1575508728 3.1673988666 3.1794957178 3.1921228915 3.2016891974 3.2147239604 3.228866722 3.2416320304 3.2514932525 
3.2584065654 3.2673748875 3.2717469134 3.2738807853 3.2752542054 3.0786356419 3.0788918017 3.0781722576 3.0760487902 
3.0716167725 3.0650523307 3.0562662063 3.0478862357 3.0400751772 3.0331176332 3.0356535213 3.2759580327 3.2703022531 
3.1260231725 3.2734480514 3.1193660318 3.2854322033 3.0797339317 3.2630187168 3.1071186943 3.1034713949 3.2745415529 
3.0977291529 3.077542039 3.0775386834 3.1132726402 3.2747974931 3.2764049035 3.0800378063 3.0789150267 3.0787886457 
3.0962204808 3.0215520641 3.034132002 3.0043338523 3.011324168 2.9891072784 2.9978807517 3.0113878753 3.0451535931 
3.0675393075 3.0469246179 3.1003073436 3.0688357241 3.0874904245 3.1038964064 3.1154080288 3.1286228483 3.1413793216 
3.1537172308 3.1631830455 3.1713906041 3.1686513046 3.160343944 3.1509888533 3.1422863631 3.1354695123 3.1291199655 
3.1230607673 3.1168203879 3.1111595203 3.0939734679 3.0901047549 3.0850648702 3.0772044248 3.0671615474 3.0568417199 
3.048557003 3.0407521153 3.031004522 3.1035454793 3.1284310817 3.1446441076 3.1582396679 3.1680967725 3.1801896255 
3.1927570109 3.2024355047 3.2156299056 3.2296671491 3.242434675 3.2523645745 3.2592546189 3.2681934957 3.2728642263 
3.2750924695 3.2766452368 3.0770237843 3.074802549 3.0742280839 3.0725882482 3.0685520149 3.0623997726 3.0538642226 
3.0455772586 3.0381640388 3.0316056902 3.0338579859 3.2770615161 3.2713086671 3.1266453207 3.2746154607 3.1198260119 
3.2875985954 3.0755833195 3.2638342496 3.1074965999 3.1037915034 3.2758190872 3.0980027409 3.0739101552 3.0738557702 
3.1136975719 3.2760906308 3.2785905208 3.0760658771 3.0750714327 3.0744942716 3.0965069585 3.0220887554 3.0344906109 
3.0044723379 3.0112266447 2.9895404502 2.9983290219 3.0118193112 3.0457931417 3.0681802943 3.0466700435 3.100613942 
3.0685972765 3.087326598 3.103921125 3.1156252338 3.1288718444 3.1417021534 3.1544091934 3.1644446385 3.1726923636 
3.1705087223 3.1623824397 3.1523077833 3.1431935174 3.1361543017 3.1296584207 3.1235581041 3.1171935513 3.1115191908 
3.0942287479 3.0903415786 3.0852771362 3.0773790845 3.0672877988 3.05694915 3.0486347614 3.0408723358 3.0307247356 
3.1043417093 3.1291747638 3.1455488568 3.1591493698 3.1690035275 3.1810666829 3.1936059932 3.2033303405 3.2166877128 
3.2305035891 3.2432494998 3.2531225198 3.2599927476 3.2688432261 3.273608362 3.276053947 3.2776225384 3.0725838616 
3.0752807214 3.0742841748 3.0725638373 3.068870895 3.0631358623 3.054507882 3.0461528693 3.0389274817 3.0324655475 
3.0344301947 3.2785349733 3.2720492884 3.1272112354 3.2754200139 3.1202486801 3.2828387656 3.0744365458 3.2644885678 
3.1078083083 3.1040498233 3.2767927056 3.0983054478 3.0738883405 3.0741166247 3.1140571147 3.2770512616 3.2797758623 
3.0747581314 3.0747308299 3.0751587084 3.0968311087 3.0231347728 3.034740314 3.0047212816 3.0113740649 2.9902721789 
2.9989796104 3.0124204892 3.0469053782 3.0690845333 3.0462832806 3.1009470631 3.0681055343 3.0869042002 3.1037214877 
3.115566745 3.1287907321 3.1416502322 3.1548493253 3.1655079503 3.1739458631 3.1724303876 3.1647066621 3.1536232169 
3.1439326027 3.1365758177 3.129892023 3.1238714848 3.1174860562 3.1119095972 3.0945234886 3.0906719292 3.0855253915 
3.0776500683 3.0674362176 3.0570850975 3.0487137932 3.0409752246 3.0299263027 3.1052700506 3.1301522202 3.1464481375 
3.1600215017 3.1699486373 3.1818730055 3.1944875723 3.2043330379 3.2177389894 3.2313868429 3.2439448502 3.2541924902 
3.2609163251 3.2695825146 3.2748933462 3.2774962288 3.2793647743 3.0762940535 3.0780702195 3.0777526443 3.0755244717 
3.0717105947 3.0661318085 3.057386323 3.049068896 3.0416401947 3.0350577401 3.0368948988 3.2801774307 3.2728425608 
3.1275782389 3.2766319892 3.1205776796 3.2297995565 3.0778366663 3.2652597845 3.1080946299 3.104360068 3.2780435522 
3.0986910151 3.077130277 3.0771935026 3.1144984361 3.278461753 3.288073278 3.0774879497 3.0784644054 3.0783597502 
3.0972468742 3.0239614875 3.0335488367 3.0039500515 3.011422473 2.9900899349 2.9992796541 3.0127981137 3.0471031041 
3.0697725295 3.0452539193 3.1015403733 3.066615828 3.0856908537 3.1028139608 3.1149713133 3.1281727001 3.1405116651 
3.1551828595 3.1653534959 3.1752490896 3.175096018 3.1677104471 3.1552754056 3.1447676706 3.1369604491 3.1300991359 
3.1240773519 3.1186074392 3.112742158 3.09495579 3.0910974907 3.085846908 3.0779666797 3.0675516214 3.057173951 
3.0487228482 3.0409352506 3.0286495947 3.1059061757 3.1309740444 3.1471632165 3.1605787794 3.1706423717 3.1825994738 
3.1952432626 3.2053223046 3.2188317273 3.2324501677 3.2454959208 3.2553861598 3.2623757394 3.271248849 3.2779026535 
3.2801842302 3.2813602509 3.0761736713 3.0793253819 3.0796545141 3.0779087175 3.0741872456 3.0686018251 3.0599501958 
3.0519378015 3.0443142897 3.0375030874 3.0398655507 3.2832303405 3.2748907613 3.1279379707 3.2794438459 3.1209315783 
3.0929661109 3.0786206628 3.2665866054 3.1087790522 3.1048107618 3.2804515301 3.0992197513 3.0791925395 3.0791157148 
3.115511651 3.2805519054 3.247576307 3.0775254879 3.0790675662 3.0793698951 3.0976368528 3.0236060356 3.0324452041 
3.0017210129 3.0064500504 2.9885579763 2.9981739624 3.0124341696 3.0465275748 3.0698931072 3.0435991052 3.1016841408 
3.065323474 3.0841276639 3.1020667567 3.1138486059 3.1270513578 3.1390389847 3.1560523623 3.166997516 3.1779275967 
3.1803470663 3.1722148475 3.158374106 3.1460231837 3.1374317649 3.1308001349 3.1244759516 3.1184542489 3.1134441995 
3.0955184052 3.0915631529 3.0862218396 3.0785665231 3.0677406439 3.0572016226 3.0484731046 3.0406828461 3.0267966022 
3.1067002639 3.1316768693 3.1482246368 3.1618425751 3.1719702404 3.1838948989 3.1962848316 3.2072531479 3.2212775092 
3.235372919 3.2488689564 3.2619762419 3.2664010965 3.2748641204 3.2801686205 3.2797572816 3.2840009155 3.0759565728 
3.0801566322 3.0802561952 3.080243685 3.0759882503 3.0702435943 3.0612823661 3.0534969701 3.0455422057 3.0385537233 
3.0414197618 3.2523542014 3.2780998619 3.1280583606 3.2802889021 3.121515089 3.0749103075 3.0781627379 3.2699816691 
3.1088163313 3.1049958703 3.2800717984 3.0997209073 3.0811573584 3.0813031757 3.1160771549 3.2791921327 3.0510575961 
3.0772396537 3.0790705171 3.0805291831 3.0980569965 3.0256926817 3.0340267691 3.0046760552 3.0079495156 2.9899219915 
3.0006920494 3.0154729182 3.0505291667 3.0714674429 3.0463653628 3.1017441437 3.0655233286 3.085811876 3.1016861549 
3.1153760167 3.1286986771 3.1407224023 3.1605455937 3.1812597731 3.1852961937 3.1842039806 3.1748460351 3.1591439339 
3.1465986232 3.1374929534 3.1305548361 3.1235956638 3.1163981276 3.1112038823 3.09520233 3.0927868726 3.0870288247 
3.0777053645 3.0680536017 3.0567749033 3.047587255 3.0390438529 3.0247960003 3.1054849469 3.132473969 3.1534788641 
3.1674344261 3.1764501693 3.1929339675 3.2019275632 3.2124448493 3.230632894 3.2426778727 3.2585508562 3.2676977646 