# vtk DataFile Version 4.2
vtk output
ASCII
DATASET UNSTRUCTURED_GRID
POINTS 1740 double
2144.07 -94.44003 0 2911 0 0 16.54298 -37.82236 0 
5.09149 -21.30132 0 1.27433 -10.75385 0 0 0 0 
2.54575 15.14293 0 6.36291 23.76126 0 14.00014 34.89063 0 
30.50239 50.70793 0 33.39435 -52.93479 0 2050.91 -103.7862 0 
60.1465 -69.72165 0 88.83633 -83.2817 0 118.7656 -94.71113 0 
153.4168 -105.7022 0 199.5806 -117.771 0 261.4466 -130.7139 0 
345.846 -144.1892 0 460.3522 -157.0592 0 608.4185 -167.1903 0 
783.2313 -172.4016 0 941.0559 -172.4533 0 1063.409 -170.1096 0 
1164.153 -166.8746 0 1263.449 -162.682 0 1375.468 -156.8941 0 
1513.293 -148.414 0 1665.281 -137.5317 0 1791.864 -127.3721 0 
2195.451 -89.09491 0 2273.924 -80.67077 0 2383.731 -68.3513 0 
2517.64 -52.47337 0 2649.227 -35.9232 0 2740.773 -23.82991 0 
2804.387 -15.13419 0 2848.802 -8.916218 0 2881.944 -4.196067 0 
56.61447 67.79801 0 84.09687 81.25172 0 112.4783 92.48395 0 
142.1748 102.3504 0 174.8563 111.6168 0 213.124 120.8806 0 
260.3759 130.5151 0 324.6539 141.1779 0 418.1422 152.9178 0 
535.6656 162.9871 0 690.9154 170.4255 0 902.6513 172.7852 0 
1100.32 169.0517 0 1270.99 162.3262 0 1462.794 151.6837 0 
1631.287 140.0952 0 1747.993 131 0 1922.788 115.9027 0 
2069.56 101.951 0 2128.804 96.0021 0 2297.147 78.11721 0 
2414.379 64.80104 0 2554.023 47.99319 0 2673.693 32.73885 0 
2757.97 21.50315 0 2814.297 13.7575 0 2852.02 8.460961 0 
2882.272 4.148909 0 1791.052 127.4402 0 1366.894 157.3738 0 
1444.38 -152.8302 0 1547.039 146.1296 0 1589.287 -143.1614 0 
1878.731 119.8675 0 1997.072 108.9828 0 1185.654 166.0472 0 
1882.536 -119.5292 0 1971.323 -111.4145 0 1684.777 136.0292 0 
2099.317 -98.9855 0 2234.809 84.9091 0 2181.695 90.53914 0 
1728.573 -132.5703 0 1718.815 133.3509 0 1834.825 123.7132 0 
1960.305 112.4444 0 2033.69 105.4648 0 2099.184 98.99892 0 
2214.291 -79.307066058 396.8421 2955.512 10.406073076 396.8421 158.0786 -29.200843214 396.8421 
147.0109 -13.344733477 396.8421 143.3217 -3.2075891992 396.8421 142.09 7.1384813821 396.8421 
144.5505 21.724616483 396.8421 148.2398 30.035446526 396.8421 155.621 40.778368455 396.8421 
171.5701 56.068176592 396.8421 174.3652 -43.679124824 396.8421 2124.254 -88.270830188 396.8421 
200.2206 -59.729198433 396.8421 227.9488 -72.665914035 396.8421 256.8748 -83.547612141 396.8421 
290.3647 -93.989704324 396.8421 334.981 -105.42574042 396.8421 394.7733 -117.64627616 396.8421 
476.3434 -130.30204804 396.8421 587.0114 -142.28214682 396.8421 730.1145 -151.54225611 396.8421 
899.0676 -156.03395889 396.8421 1051.602 -155.66535797 396.8421 1169.853 -153.12269387 396.8421 
1267.221 -149.79804555 396.8421 1363.188 -145.57760439 396.8421 1471.452 -139.82549079 396.8421 
1604.657 -131.48164456 396.8421 1751.55 -120.86070669 396.8421 1873.891 -111.0038876 396.8421 
2263.949 -74.190003652 396.8421 2339.792 -66.137804858 396.8421 2445.918 -54.387268374 396.8421 
2575.338 -39.280996497 396.8421 2702.515 -23.57464774 396.8421 2790.992 -12.119901302 396.8421 
2852.473 -3.8934350721 396.8421 2895.4 1.984220517 396.8421 2927.431 6.443561908 396.8421 
196.807 72.619644174 396.8421 223.3682 85.67480435 396.8421 250.7983 96.593846823 396.8421 
279.4994 106.20185394 396.8421 311.0855 115.24204552 396.8421 348.0705 124.29847886 396.8421 
393.7383 133.74193883 396.8421 455.8617 144.23174059 396.8421 546.2162 155.851715 396.8421 
659.8003 165.92985504 396.8421 809.846 173.57113302 396.8421 1014.485 176.44111122 396.8421 
1205.528 173.33819951 396.8421 1370.477 167.22842954 396.8421 1555.851 157.3191469 396.8421 
1718.696 146.38673522 396.8421 1831.49 137.74352197 396.8421 2000.426 123.30816337 396.8421 
2142.278 109.89064775 396.8421 2199.537 104.1504426 396.8421 2362.236 86.83302287 396.8421 
2475.539 73.887547092 396.8421 2610.501 57.492792313 396.8421 2726.16 42.5666742 396.8421 
2807.613 31.547481065 396.8421 2862.05 23.939700345 396.8421 2898.509 18.732417094 396.8421 
2927.749 14.490158524 396.8421 1873.106 134.34884524 396.8421 1463.165 162.63915955 396.8421 
1538.054 -135.81742905 396.8421 1637.272 152.09286781 396.8421 1678.104 -126.34553038 396.8421 
1957.846 127.10839605 396.8421 2072.22 116.66159111 396.8421 1288 170.63549242 396.8421 
1961.524 -103.42424823 396.8421 2047.334 -95.604179975 396.8421 1770.393 142.5286016 396.8421 
2171.038 -83.663896995 396.8421 2301.989 93.419400392 396.8421 2250.655 98.869988693 396.8421 
1812.721 -116.04115802 396.8421 1803.29 139.98189819 396.8421 1915.411 130.78837356 396.8421 
2036.686 119.98850753 396.8421 2107.61 113.27609671 396.8421 2170.909 107.04349431 396.8421 
2284.511 -66.080680456 793.6842 3000.027 19.229298001 793.6842 299.6143 -20.447600029 793.6842 
288.9304 -5.2178669721 793.6842 285.3691 4.530064184 793.6842 284.1801 14.487345056 793.6842 
286.5551 28.539322275 793.6842 290.1167 36.553368918 793.6842 297.2417 46.9211657 793.6842 
312.6379 61.694579049 793.6842 315.336 -34.333583194 793.6842 2197.597 -74.650540159 793.6842 
340.2947 -49.702113517 793.6842 367.0612 -62.068125579 793.6842 394.9839 -72.453118452 793.6842 
427.3123 -82.402242942 793.6842 470.3812 -93.276928701 793.6842 528.0998 -104.86677981 793.6842 
606.8411 -116.82298998 793.6842 713.6708 -128.06903509 793.6842 851.8104 -136.6493924 793.6842 
1014.904 -140.63324667 793.6842 1162.147 -140.02192527 793.6842 1276.298 -137.40809468 793.6842 
1370.288 -134.09210153 793.6842 1462.927 -129.93405277 793.6842 1567.436 -124.31150789 793.6842 
1696.021 -116.20595355 793.6842 1837.82 -105.94100058 793.6842 1955.917 -96.450160187 793.6842 
2332.447 -61.193814997 793.6842 2405.659 -53.510814805 793.6842 2508.105 -42.312794683 793.6842 
2633.037 -27.937250908 793.6842 2755.801 -13.010822594 793.6842 2841.209 -2.1356734161 793.6842 
2900.561 5.6697544322 793.6842 2941.997 11.244439107 793.6842 2972.917 15.472795241 793.6842 
336.9995 77.711902051 793.6842 362.6396 90.365780782 793.6842 389.1182 100.96424036 793.6842 
416.8239 110.30286683 793.6842 447.3145 119.10186835 793.6842 483.0167 127.93032773 793.6842 
527.1009 137.15359099 793.6842 587.0697 147.42556787 793.6842 674.2905 158.85198509 793.6842 
783.9349 168.83513987 793.6842 928.7766 176.52734064 793.6842 1126.317 179.68291712 793.6842 
1310.735 176.99199876 793.6842 1469.963 171.30930851 793.6842 1648.908 161.92842378 793.6842 
1806.105 151.48475624 793.6842 1914.987 143.18683901 793.6842 2078.064 129.2722369 793.6842 
2214.996 116.29097205 793.6842 2270.269 110.72594915 793.6842 2427.326 93.902217263 793.6842 
2536.699 81.296605291 793.6842 2666.98 65.302738692 793.6842 2778.628 50.717391061 793.6842 
2857.255 39.937175358 793.6842 2909.806 32.488907724 793.6842 2945.001 27.388464599 793.6842 
2973.224 23.231937513 793.6842 1955.16 139.92019912 793.6842 1559.437 166.97933894 793.6842 
1631.729 -120.41211008 793.6842 1727.505 156.94452401 793.6842 1766.921 -111.2360967 793.6842 
2036.96 132.94106236 793.6842 2147.368 122.84672619 793.6842 1390.347 174.49635728 793.6842 
2040.511 -89.169615283 793.6842 2123.346 -81.671491363 793.6842 1856.009 147.78444579 793.6842 
2242.759 -70.244490672 793.6842 2369.167 100.30652451 793.6842 2319.614 105.60126227 793.6842 
1896.869 -101.29684753 793.6842 1887.765 145.33860279 793.6842 1995.998 136.4901793 793.6842 
2113.066 126.06434565 793.6842 2181.531 119.57004261 793.6842 2242.634 113.53149091 793.6842 
2354.732 -54.389701047 1190.526 3044.539 26.792206563 1190.526 441.15 -11.925657934 1190.526 
430.8497 2.7062433792 1190.526 427.4164 12.080377074 1190.526 426.2701 21.66253723 1190.526 
428.5601 35.196229421 1190.526 431.9934 42.920716348 1190.526 438.8627 52.920718594 1190.526 
453.7057 67.183949183 1190.526 456.3069 -25.250775447 1190.526 2270.94 -62.567210874 1190.526 
480.3688 -39.979374328 1190.526 506.1737 -51.814347349 1190.526 533.0934 -61.74103438 1190.526 
564.26 -71.239191241 1190.526 605.7815 -81.605612386 1190.526 661.4265 -92.632134428 1190.526 
737.3385 -103.97580743 1190.526 840.33 -114.59815041 1190.526 973.5064 -122.63064975 1190.526 
1130.74 -126.24790501 1190.526 1272.693 -125.50771291 1190.526 1382.742 -122.90222172 1190.526 
1473.356 -119.65450997 1190.526 1562.666 -115.61217178 1190.526 1663.42 -110.17258211 1190.526 
1787.385 -102.36148867 1190.526 1924.09 -92.501221238 1190.526 2037.944 -83.406032705 1190.526 
2400.946 -49.729418476 1190.526 2471.527 -42.406367529 1190.526 2570.292 -31.739869482 1190.526 
2690.735 -18.056400065 1190.526 2809.091 -3.8573998802 1190.526 2891.43 6.4835957646 1190.526 
2948.647 13.903985404 1190.526 2988.597 19.202979242 1190.526 3018.403 23.2219461 1190.526 
477.1918 82.66782524 1190.526 501.9109 94.915947718 1190.526 527.4382 105.18619275 1190.526 
554.1485 114.24524222 1190.526 583.5435 122.7899731 1190.526 617.963 131.37351556 1190.526 
660.4633 140.35343126 1190.526 718.2775 150.37320699 1190.526 802.3645 161.55168551 1190.526 
908.0698 171.36588502 1190.526 1047.707 179.00491475 1190.526 1238.151 182.29831624 1190.526 
1415.942 179.88083192 1190.526 1569.449 174.50908025 1190.526 1741.965 165.53427205 1190.526 
1893.514 155.48194991 1190.526 1998.484 147.46892708 1190.526 2155.702 133.99755528 1190.526 
2287.714 121.4012119 1190.526 2341.001 115.99463795 1190.526 2492.415 99.630719999 1190.526 
2597.858 87.354322914 1190.526 2723.46 71.763608531 1190.526 2831.095 57.53491597 1190.526 
2906.899 47.013041818 1190.526 2957.56 39.74119848 1190.526 2991.49 34.76070944 1190.526 
3018.699 30.701490339 1190.526 2037.214 144.3098039 1190.526 1655.708 170.37599466 1190.526 
1725.403 -106.41126861 1190.526 1817.738 160.74267993 1190.526 1855.738 -97.583999663 1190.526 
2116.075 137.55302461 1190.526 2222.516 127.76545641 1190.526 1492.694 177.5336047 1190.526 
2119.498 -76.439375158 1190.526 2199.357 -69.272230638 1190.526 1941.625 151.91089297 1190.526 
2314.479 -58.362028317 1190.526 2436.346 105.86307544 1190.526 2388.573 111.01289746 1190.526 
1981.017 -88.048428897 1190.526 1972.24 149.54847841 1190.526 2076.584 140.99016527 1190.526 
[...]
POINT_DATA 1740
FIELD FieldData 1
Pressure 1 1740 double
3.1046946952 3.0177179915 3.0091699204 2.985739463 2.978874367 2.9600358318 2.9718162226 2.9890016775 3.0200287741 
3.0343199105 3.0104517422 3.1085595323 3.0330351606 3.047420444 3.0645706178 3.0634568518 3.0809991017 3.0862505078 
3.1065274778 3.1122682958 3.130248817 3.1381504813 3.140494392 3.1454853815 3.1412492895 3.1373035139 3.1340582245 
3.1305190572 3.1245350586 3.1191925254 3.1020593054 3.0986895309 3.0930318483 3.0850276791 3.0741353115 3.064131228 
3.0541995124 3.0456525332 3.0368140487 3.0702512708 3.0820931157 3.094723038 3.1082822628 3.1148684906 3.1210658745 
3.1284528654 3.1361415116 3.151966304 3.1642852235 3.18190507 3.1931823106 3.1995237753 3.2057913367 3.2119563605 
3.2157791238 3.2187155009 3.2196905666 3.212122265 3.0888230954 3.0841673726 3.078696199 3.0700190886 3.0605442053 
3.0500729767 3.0396923683 3.0324091387 3.029875775 3.2186710063 3.2094978615 3.1329678963 3.2129625541 3.1277256861 
3.2194054068 3.2211149245 3.2060700831 3.1154216484 3.1118718858 3.2166188673 3.1065831064 3.0864059171 3.0851360362 
3.1216987704 3.2182789478 3.2193680109 3.2209342733 3.2206966401 3.1316356563 3.1017365705 3.0229536963 3.0274922518 
3.0009733009 3.007908659 2.9865315998 2.9942947273 3.0060884319 3.034324842 3.0529470638 3.0342886333 3.1060069504 
3.0546867102 3.0671126569 3.0806488355 3.0846783359 3.0998655945 3.1092324132 3.1221666416 3.1275376406 3.1369822051 
3.1412623357 3.1446710332 3.1445487182 3.1406834695 3.1361540166 3.1313342529 3.127091706 3.121521723 3.1164944181 
3.0994482517 3.0954403958 3.0897420116 3.0819384145 3.0709598863 3.0608852687 3.0511193444 3.0435628992 3.027912982 
3.0861844948 3.1073838022 3.1198763838 3.1281994385 3.1375834813 3.1420749465 3.1476096464 3.1583605501 3.1700540376 
3.1786289563 3.1886806916 3.1967647245 3.2029426868 3.2094932124 3.2131963032 3.2162118334 3.2185147574 3.2209160315 
3.0901258144 3.0982035466 3.0884533887 3.0827752649 3.0747230282 3.0646315738 3.0546326926 3.0445218236 3.0381959444 
3.0386783571 3.2192330546 3.2114438391 3.1301987304 3.2155233939 3.124201517 3.2204894917 3.2212615334 3.2076784561 
3.11259261 3.1090350971 3.2172689491 3.1041228963 3.0914436862 3.0929673112 3.1192652473 3.2179737533 3.2194177302 
3.2209125824 3.2202493243 3.0912175733 3.0998166494 3.0239175126 3.0278148891 3.0002087095 3.0025769183 2.9847919606 
2.9970872338 3.0107783593 3.0396083104 3.0608918291 3.0425381235 3.1040214436 3.0574588851 3.076397805 3.0945604323 
3.1013301923 3.1133833466 3.1214255296 3.1341887337 3.1402882721 3.1464603029 3.1485768936 3.1479574344 3.1459824661 
3.1407031545 3.1351310531 3.1304035934 3.1247666164 3.1195827782 3.1146468879 3.0974440653 3.0937323989 3.087798013 
3.0801340866 3.0689100624 3.05867851 3.0493892764 3.0422708679 3.0278874531 3.0941502263 3.1158746683 3.1345808542 
3.143531058 3.1530357946 3.1621668069 3.1721669946 3.1765001592 3.1853156067 3.1950900145 3.2012083663 3.2070782515 
3.2093140431 3.2158616366 3.2191141782 3.2196605592 3.2210578637 3.2229066742 3.0881895594 3.0924905808 3.0911622574 
3.0858373229 3.0780834806 3.0674999831 3.0578356352 3.0480517015 3.0409029334 3.0426195663 3.2218468697 3.2177267672 
3.1280291755 3.2194974385 3.1220282296 3.2226130639 3.2206049795 3.2130502751 3.1107376771 3.1071066891 3.2199342123 
3.10225939 3.0932715757 3.0941379166 3.1173703443 3.2203840036 3.2226557945 3.2262113067 3.0882401409 3.0896939908 
3.0985871934 3.0246528701 3.0283326222 3.0002226578 3.0027929093 2.9828635004 2.9930953567 3.0076032863 3.0402851911 
3.0621105277 3.0417013064 3.1027778852 3.0620103076 3.0794347981 3.0981555243 3.107165625 3.118861493 3.1276024712 
3.1394252784 3.146412958 3.1522058059 3.1530862377 3.1512222793 3.1474500848 3.1413957683 3.1354732956 3.1300551283 
3.1241910587 3.1185070934 3.1134469924 3.0963370434 3.092595663 3.0868802481 3.079232232 3.068151312 3.0579155093 
3.0489654083 3.0419055587 3.0277311282 3.0984343076 3.1218243295 3.1372058008 3.1493169768 3.157271798 3.168046933 
3.1807259614 3.1905161428 3.1988130481 3.2080501172 3.2138285021 3.2188590616 3.2192807084 3.2246556074 3.2268075831 
3.2266555438 3.2272846122 3.2310071525 3.0938511532 3.0923270218 3.0903784412 3.0857100784 3.0782244927 3.0681584644 
3.0586682917 3.0491878813 3.0418121636 3.0437032572 3.227685627 3.2261270754 3.1275014358 3.2268877268 3.1212628695 
3.2278371593 3.0840799008 3.222093196 3.1096108448 3.1058141589 3.2266896273 3.1009285432 3.0923176044 3.0929710303 
3.1160962723 3.2267022418 3.2279903029 3.2079902771 3.0896451461 3.093612668 3.0978464435 3.0242804085 3.0305887151 
3.0011739077 3.0087569541 2.9874099338 2.9952871943 3.0088145384 3.0424759062 3.0635103969 3.0426029602 3.1019276073 
3.0642058137 3.0814725147 3.0982779362 3.108153617 3.1205540415 3.1309380581 3.1419879201 3.1495141055 3.1556940206 
3.1555446331 3.152454379 3.1475295755 3.1409359418 3.134754805 3.1290459086 3.123510303 3.117635114 3.1124700425 
3.0955912405 3.0918442575 3.0862475994 3.0786237708 3.0677792444 3.0576914899 3.0489147809 3.0416948445 3.0281310674 
3.0999744362 3.1239582928 3.1389933801 3.1522720988 3.1612670484 3.1727279628 3.1845281331 3.1902074439 3.2017377472 
3.2140653363 3.222944263 3.2277724543 3.2289011977 3.2334293669 3.2348930063 3.2342131622 3.2345540969 3.2354365726 
3.093158774 3.0932772472 3.0888482991 3.0840343066 3.0762841265 3.0665765278 3.0572695994 3.0479270965 3.0405043503 
3.0431636641 3.2347997521 3.2347492351 3.1268175883 3.2345686236 3.1204416344 3.2344112128 3.0949707069 3.2313806627 
3.1087053118 3.1049246464 3.2340121202 3.1000230699 3.0911238012 3.0924402952 3.1151370127 3.2341258971 3.2352056449 
3.0917934815 3.0940228706 3.0942836141 3.0971789373 3.0228555874 3.0317466983 3.0026882175 3.0109561136 2.9884303109 
2.9968487123 3.0103635821 3.0434909283 3.0655645452 3.0436132295 3.1011899358 3.0654243564 3.0831801614 3.0992468789 
3.10952059 3.1219855837 3.1330720114 3.1443215093 3.1519531162 3.1586262873 3.157415403 3.1532905795 3.1473091365 
3.1403177642 3.1340024392 3.1281730381 3.1226639991 3.1168532138 3.1116176894 3.094930717 3.091174175 3.0857061815 
3.0780803481 3.06740801 3.0573968023 3.0487533456 3.0413639773 3.0288271167 3.1016679855 3.1260113831 3.1411314374 
3.154542901 3.1636905831 3.1756514378 3.1886160526 3.1960257963 3.2077610269 3.2195444389 3.230092109 3.2356546381 
3.2377262773 3.2428450997 3.2441417445 3.2425661034 3.2423601099 3.1072058629 3.0875103239 3.0881542112 3.0848826244 
3.0800530956 3.0725143017 3.0633442513 3.0543670843 3.0453831768 3.0381352219 3.0406478324 3.2423433235 3.2434871578 
3.1259459898 3.243371853 3.1196402687 3.2401813705 3.0844689402 3.2403246315 3.1078991097 3.1041308034 3.242090375 
3.0992749303 3.0871347373 3.0875089455 3.1143087439 3.2419745097 3.242447769 3.0853223238 3.0870680771 3.0879963362 
3.096607789 3.0216107168 3.0321187896 3.002871658 3.0105067542 2.987950534 2.9967720934 3.0104377651 3.0437260627 
3.0661003702 3.0441025868 3.1005940388 3.0660618637 3.0840926626 3.100110745 3.1106191292 3.1231965246 3.1346653911 
3.1460000304 3.1536613034 3.1606866627 3.1588425471 3.1538025708 3.1470889169 3.1398906914 3.1335777357 3.1277003847 
3.1221543103 3.1162712862 3.1110296958 3.0943774058 3.0906227271 3.0852801197 3.0776498431 3.0671170021 3.0571421963 
3.0485845505 3.0410497838 3.0294232931 3.1022971339 3.1269724401 3.1424336601 3.1559856878 3.1654083433 3.1775180989 
3.1904822041 3.1986034287 3.2108658463 3.2239104225 3.235245237 3.2421418015 3.2454148313 3.2514225504 3.2530606205 
3.2518074521 3.250978527 3.0809550132 3.083024302 3.0826576772 3.0806495881 3.0761671698 3.0690570903 3.0600875816 
3.0513264305 3.0427050827 3.0355604247 3.0384077071 3.2508157677 3.2525365134 3.125446385 3.2527998785 3.1190988219 
3.2501767397 3.0849363526 3.2484617741 3.107338389 3.1035657356 3.2510925582 3.0986721498 3.0821892078 3.0822577862 
3.1136490332 3.2506642387 3.2503640302 3.0824465218 3.0833799268 3.0822747023 3.0962382215 3.0210261752 3.0325302886 
3.0031606664 3.010719634 2.9881833639 2.9968718537 3.0104210854 3.0439793441 3.0663485806 3.0445285154 3.1002381923 
3.0665640761 3.0845930174 3.1005645375 3.1112699849 3.1240435676 3.1358393326 3.147154971 3.1548511813 3.1621944591 
3.1598454322 3.1540817808 3.146951738 3.139653544 3.1333743809 3.127469623 3.1217717303 3.1159113289 3.1106401147 
3.0940280448 3.0902451938 3.0850020645 3.0773888814 3.066972282 3.0569429528 3.0484579982 3.0408120898 3.0297902687 
3.1026000805 3.1274950814 3.1431143788 3.1568048699 3.1663770068 3.1785821934 3.1915978989 3.2003570975 3.2128810907 
3.2264776429 3.2384745063 3.2466208371 3.2513913807 3.25812023 3.2605163885 3.2601278913 3.2595290027 3.0779530018 
3.0803693036 3.0800208569 3.0776564393 3.0736459991 3.0669019789 3.0579538381 3.0493069262 3.0409574445 3.0338870694 
3.0367974782 3.2594631086 3.2601012704 3.1251362493 3.2604316804 3.1187588281 3.2670603281 3.0802187611 3.2549299861 
3.1069770026 3.1032117556 3.2597281149 3.098258886 3.0793468119 3.0797602877 3.113194317 3.2592579359 3.2597209369 
3.0790549348 3.079961446 3.0801545082 3.0960725585 3.0210763693 3.0329433829 3.003515909 3.0110199948 2.9884749403 
2.9971835974 3.0106773888 3.0443257082 3.0667082005 3.0449547999 3.1000629828 3.0669738818 3.0852219714 3.101245473 
3.1121130799 3.1249047163 3.1369077325 3.1482162574 3.1560727286 3.1634889912 3.1608160688 3.1544288711 3.147082559 
3.1396391084 3.1333471182 3.1274293956 3.1215698309 3.1157498228 3.110435434 3.0938499914 3.09003767 3.0848807787 
3.0772206877 3.0669514077 3.056779128 3.0483513731 3.0406408617 3.0300216933 3.1029587416 3.1279450056 3.1437454131 
3.1575014312 3.1671306677 3.1794061824 3.1923755199 3.2014983415 3.2142611866 3.2281910899 3.240547866 3.2498278563 
3.2555176009 3.2630909098 3.2669114475 3.266813466 3.267129619 3.0820787766 3.079818348 3.078293262 3.0756277014 
3.071898499 3.0654838763 3.0566098812 3.0481486391 3.0400208905 3.0330918442 3.0359213098 3.2672848156 3.2653012376 
3.1249895204 3.2671642184 3.1186245862 3.2683270308 3.079155453 3.2594911101 3.1067873034 3.1030628518 3.266756621 
3.0980008563 3.0774462189 3.0779745206 3.1129652714 3.2665655423 3.2676950235 3.0789889223 3.0789152189 3.0792118857 
3.0960218537 3.0216699912 3.0332930392 3.0038061243 3.011120762 2.9887064573 2.997492268 3.0109869417 3.0446464087 
3.0670789658 3.0452798443 3.0999244717 3.0672794232 3.0856194053 3.1017444641 3.1127334989 3.1256224488 3.1377933062 
3.1491982843 3.1573012953 3.1647554198 3.1618739726 3.1550081251 3.1474999014 3.1398781736 3.1335229139 3.1275556977 
3.1217258852 3.1158220638 3.1104417269 3.0937660555 3.0899699479 3.0848925091 3.0771671226 3.0670019564 3.0567810634 
3.0483915036 3.0406405794 3.0305708605 3.1033272611 3.1283675821 3.1443217956 3.1580910891 3.1678096196 3.1800779734 
3.1930023013 3.2023496114 3.215287333 3.229418752 3.2419756485 3.2516181297 3.258170846 3.2663748422 3.2703359208 
3.2718266748 3.2723734456 3.0847075686 3.0793870478 3.0775064024 3.0750543485 3.0713327723 3.0650480287 3.0559961619 
3.0476239279 3.0397325916 3.0329055735 3.035571996 3.2726637066 3.2689580984 3.1251500709 3.2715881562 3.1187466737 
3.2716995707 3.079860869 3.262531817 3.1068649253 3.1030928878 3.2720444545 3.0978727335 3.0768029003 3.0770943815 
3.112946563 3.2720920583 3.273356377 3.0799974354 3.0782348126 3.0779222774 3.0960422188 3.0223916525 3.0335866922 
3.0040404868 3.0111725043 2.988952912 2.9977944093 3.011270675 3.044962158 3.067454809 3.0454752719 3.1000405961 
3.0674603237 3.0858834174 3.1021145739 3.1132287701 3.126193604 3.1385096569 3.1500851154 3.1585538742 3.166013837 
3.1630524937 3.155845416 3.1481614281 3.1403246902 3.1339211089 3.1278649958 3.1221627628 3.1161102916 3.1106222028 
3.0938262175 3.0899932342 3.0849714769 3.0772010923 3.067131932 3.0568677663 3.0485221473 3.0407440305 3.0310719751 
3.1037172206 3.1287746268 3.1448261173 3.1585916722 3.1683625098 3.1806101678 3.1935017092 3.2029984382 3.2160630756 
3.2303165534 3.2430053018 3.2527382751 3.2596813751 3.2684841735 3.2726446948 3.2745368551 3.2756979704 3.0989545205 
3.0789293732 3.0774803137 3.0748979382 3.0709798099 3.0649002401 3.0556830461 3.0473346149 3.0396324497 3.0329821482 
3.0353503239 3.2762942446 3.2711917669 3.1255976351 3.2741536043 3.1190826692 3.2746649663 3.0773399219 3.2642626417 
3.1070535625 3.1034242249 3.2751721116 3.0978238064 3.0765133371 3.0769465378 3.1131096739 3.2753093339 3.2768355869 
3.0690952006 3.0774423258 3.0778562479 3.096222807 3.022640479 3.0338089511 3.0042031538 3.0111815142 2.989207136 
2.9981060346 3.0115615911 3.0452922894 3.067849154 3.0455665731 3.1002659009 3.0675517665 3.086026908 3.1023582291 
3.1136109909 3.1266325321 3.1390642341 3.1509602311 3.1596904938 3.1672949613 3.1644323456 3.157005249 3.1491040752 
3.1410184447 3.1345636506 3.1283764403 3.1226478238 3.1163868642 3.1108821701 3.094004898 3.0901494237 3.0851298822 
3.0773098526 3.0673048974 3.0569887122 3.048663214 3.0408698827 3.0314312994 3.1041493203 3.1292023426 3.1453155993 
3.1590648724 3.16887381 3.1810969043 3.1939316705 3.20356283 3.2167571614 3.2309559614 3.2437507807 3.253563835 
3.2605971278 3.2696027834 3.2740358807 3.276243893 3.2777205826 3.1053569211 3.0795508558 3.0777591276 3.0742814366 
3.0701772177 3.0640146749 3.0548316896 3.0465146333 3.0388778325 3.0324943013 3.034531435 3.2785167238 3.2726100023 
3.1260712716 3.2758116305 3.1194602007 3.2769272274 3.0770681261 3.2652568196 3.1073184808 3.1037183001 3.2769366312 
3.0979885911 3.0760411202 3.076726277 3.1133403855 3.2772322051 3.278851679 3.0817987454 3.0785713561 3.078609992 
3.0964779552 3.0223328258 3.0340090214 3.0042953397 3.0110949624 2.9894719566 2.9984280448 3.0118893691 3.0456813894 
3.0682921728 3.0456206407 3.1005375841 3.0675553733 3.0860152115 3.1025149184 3.1139446347 3.1269974529 3.1395802224 
3.1517380471 3.1611231403 3.1687799629 3.1661953329 3.1586648916 3.1504162743 3.1420020673 3.1354052689 3.1290851248 
3.1233162118 3.1169258366 3.1113035526 3.0942487467 3.0903720625 3.0853490362 3.0774679086 3.0674641685 3.0571019521 
3.048774144 3.0409780569 3.0315236887 3.1046916666 3.129701017 3.1459061849 3.1596627685 3.1694750354 3.1816832775 
3.1944386598 3.2041805262 3.2175208597 3.2315794187 3.2443892572 3.2542862087 3.2612542303 3.2702104425 3.2749150239 
3.2772449901 3.2787925177 3.1076031898 3.0760765607 3.0752589025 3.071832976 3.0676689893 3.061651983 3.0529617158 
3.0447827904 3.0373037997 3.0311828256 3.0328417526 3.2796882376 3.2733715795 3.1267643542 3.2767669304 3.1199820366 
3.2780667963 3.0766558238 3.2658675956 3.1076983489 3.1040472788 3.2779758941 3.0982292487 3.073703772 3.0741363316 
3.1138100693 3.2783026109 3.2799382188 3.0803569951 3.0756258962 3.0756243884 3.0967939831 3.0222202419 3.0343433779 
3.0044376075 3.0110023543 2.9898730534 2.998855113 3.0123107526 3.0464224424 3.0689672689 3.0455200241 3.1009094707 
3.0674217992 3.0860061832 3.102669866 3.114301837 3.1273516251 3.1400139454 3.1525913704 3.1622554128 3.1703836621 
3.1682226453 3.1607939008 3.1519396682 3.1431255225 3.1362637252 3.1297798381 3.1239068868 3.1174779799 3.1117786788 
3.0945376834 3.0906384985 3.0855786158 3.0776605381 3.0675991541 3.0572165399 3.0488613214 3.0410915332 3.031287282 
3.1054884807 3.1304138046 3.1467413212 3.1604967464 3.1703013227 3.1824816315 3.1951735124 3.2049540617 3.2184553422 
3.2323025638 3.2450742413 3.2548886253 3.2618378761 3.2707080748 3.2755042905 3.2780129701 3.2796394604 3.0840499665 
3.0706768308 3.0708185063 3.0689996176 3.0653890032 3.0599222016 3.0515987997 3.0435418986 3.0364674127 3.0305012377 
3.0321333151 3.280622171 3.2739370901 3.1274611305 3.2773959036 3.1205615714 3.2785766992 3.0697916036 3.2663602934 
3.1081022066 3.1043724241 3.2787584569 3.0985711409 3.0705094961 3.0705968089 3.1143223069 3.2790995206 3.2818761526 
3.0681966231 3.0697137284 3.07049491 3.0971641886 3.0227797363 3.0345811749 3.0046897051 3.0111593213 2.9905539714 
2.9994947418 3.0128951195 3.0475503511 3.0699132498 3.0451769178 3.1012706904 3.0670071725 3.0856833621 3.1025745565 
3.1143283928 3.1274602619 3.1400613873 3.1532227163 3.163563064 3.171727458 3.1702056835 3.163132445 3.1533903133 
3.1440777584 3.1368529213 3.1301506286 3.1242924189 3.1177872817 3.1122111664 3.0948572098 3.0909816202 3.0858442757 
3.0779346942 3.0677498207 3.0573552573 3.0489438621 3.041179133 3.0306364436 3.1064039372 3.1313538047 3.1476231834 
3.161328753 3.1711964291 3.1832205318 3.1959704049 3.2058468917 3.2193979059 3.2330579853 3.245619861 3.2558250155 
3.2626052482 3.2712817706 3.2765382877 3.2792810717 3.2809025709 3.0723954941 3.0717177266 3.0714120161 3.0704161949 
3.0668359481 3.0615829094 3.0530583749 3.0449618642 3.0379334406 3.0320129419 3.0334853224 3.282110702 3.2745805079 
3.1279175076 3.2783915752 3.1209336927 3.2678910386 3.0682280336 3.2669667026 3.1084337107 3.1047151096 3.2799264476 
3.0989876972 3.0719327966 3.0718671431 3.1147744701 3.2803421209 3.2872088096 3.0668761289 3.0706865541 3.0715412515 
3.0975445588 3.0238300365 3.0333849406 3.0038762046 3.0111833769 2.9902934556 2.9998196543 3.0132556196 3.0477552782 
3.0705476662 3.0442548435 3.1018041542 3.0655960432 3.0845800502 3.1017581474 3.1138285651 3.1268854632 3.1390775736 
3.1536850005 3.1638213994 3.1730597755 3.172887913 3.1660319029 3.1550466391 3.1450191419 3.1373168513 3.1304394778 
3.124433397 3.1188284406 3.1129649697 3.0952453935 3.0913534763 3.086131648 3.0782118551 3.0678246523 3.0574034831 
3.0489242023 3.0411147526 3.0293116032 3.1069631756 3.1321038907 3.1482396223 3.1617802713 3.1717986078 3.1838611901 
3.1966279504 3.2067253608 3.2203563766 3.2339855822 3.2470160833 3.2568559451 3.2639158222 3.2727689942 3.279440512 
3.2817207314 3.2820909681 3.0702702363 3.0760012616 3.0757423765 3.0742732678 3.0706973269 3.0652902098 3.0565368105 
3.0485754901 3.0412336235 3.0351789481 3.0368001324 3.2834525969 3.2764199068 3.1282644872 3.2809839398 3.1211943016 
3.1191270798 3.0754766417 3.2681324908 3.1090666169 3.1050893212 3.282033466 3.0994724809 3.0756280586 3.0761084236 
3.1156817059 3.2823316513 3.2735374214 3.0710358767 3.0755317098 3.0756631402 3.0978634388 3.0241643868 3.0322513884 
3.0016373183 3.0064227224 2.9889220796 2.9986326928 3.0128026907 3.0470697451 3.0706020457 3.0426569313 3.1019183797 
3.0643574368 3.0831121167 3.101068383 3.1127414555 3.1259608833 3.1378173943 3.154748234 3.1653636216 3.1759800306 
3.1783167344 3.1705283603 3.1579795452 3.1462221394 3.1377362514 3.1308910125 3.1245224046 3.1185110971 3.113633992 
3.0957172274 3.0917354141 3.0864242483 3.0787396506 3.0679292557 3.0573788395 3.0486252044 3.0408281545 3.0272364786 
3.1075982579 3.1327002673 3.1491799554 3.1629165931 3.172999561 3.1849862228 3.1975080448 3.2084991255 3.2226664572 
3.2367708542 3.2502232488 3.263280219 3.2677723037 3.2762906788 3.2815208956 3.2816399658 3.2809799708 3.071338337 
3.0791843881 3.0795992026 3.0787789954 3.0749124449 3.0691889067 3.0601081137 3.0523083919 3.0445965804 3.0380753955 
3.040494439 3.2797739136 3.2795377319 3.1281563148 3.2817908202 3.1215944865 3.0608821457 3.0765925212 3.2713609266 
3.1089270323 3.1051910517 3.281758631 3.099924367 3.0797005924 3.0799360382 3.1162411846 3.2818325429 3.091208459 
3.0746410564 3.0775106674 3.0789222437 3.0981757736 3.0266258823 3.0338214834 3.0046783021 3.0080334964 2.9901601429 
3.0009844726 3.0157006105 3.0507193303 3.071899939 3.0455052575 3.101668628 3.0647948269 3.08497228 3.1010177311 
3.1145027254 3.1278520977 3.1397274765 3.1593150616 3.1803198053 3.1836727779 3.1823513186 3.1731937473 3.1580604434 
3.1460795308 3.1371960977 3.1301443756 3.1235589954 3.1164189941 3.1112158069 3.0952714188 3.0928725547 3.087142499 
3.0777751165 3.0681677183 3.0568766433 3.0476988719 3.039173822 3.0249054998 3.1061075712 3.133274669 3.1542242455 
3.1682601574 3.1772491945 3.194130767 3.2030299014 3.2135938435 3.231810845 3.2439101656 3.2597824951 3.2688526691 