# vtk DataFile Version 4.2
vtk output
ASCII
DATASET POLYDATA
POINTS 15777 float
2358.26 -2275.09 5800 2377.91 -2285.42 5800 2406.91 -2286.28 5800 
2434.36 -2275.09 5800 2333.51 -2262.09 5800 2348.91 -2270.18 5800 
2435.91 -2274.48 5800 2464.91 -2262.63 5800 2466.23 -2262.09 5800 
2308.77 -2249.09 5800 2319.91 -2254.95 5800 2493.91 -2250.78 5800 
2498.05 -2249.09 5800 2284.02 -2236.09 5800 2290.91 -2239.71 5800 
2522.91 -2238.92 5800 2529.86 -2236.08 5800 2259.28 -2223.09 5800 
2261.91 -2224.47 5800 2551.92 -2227.07 5800 2561.68 -2223.08 5800 
2234.53 -2210.09 5800 2580.92 -2215.22 5800 2600.14 -2210.08 5800 
2209.79 -2197.09 5800 2232.91 -2209.24 5800 2609.92 -2207.63 5800 
2638.92 -2200.48 5800 2652.74 -2197.08 5800 2202.29 -2184.09 5800 
2203.91 -2191.21 5800 2667.92 -2193.34 5800 2696.92 -2186.19 5800 
2699.76 -2184.07 5800 2202.52 -2171.09 5800 2720.89 -2171.07 5800 
2202.75 -2158.09 5800 2725.93 -2168.54 5800 2736.92 -2158.07 5800 
2202.98 -2145.09 5800 2750.57 -2145.07 5800 2203.21 -2132.09 5800 
2754.93 -2140.92 5800 2764.22 -2132.07 5800 2203.44 -2119.09 5800 
2777.87 -2119.07 5800 2203.68 -2106.09 5800 2783.93 -2113.3 5800 
2791.52 -2106.07 5800 2203.91 -2093.08 5800 2805.18 -2093.06 5800 
2203.92 -2092.68 5800 2204.14 -2080.08 5800 2812.94 -2085.67 5800 
2818.83 -2080.06 5800 2204.37 -2067.08 5800 2832.48 -2067.06 5800 
2204.6 -2054.08 5800 2841.94 -2058.05 5800 2846.13 -2054.06 5800 
2202.62 -2041.08 5800 2203.92 -2049.71 5800 2859.78 -2041.06 5800 
2199.46 -2028.08 5800 2870.94 -2030.43 5800 2873.43 -2028.06 5800 
2196.3 -2015.08 5800 2887.08 -2015.06 5800 2193.14 -2002.08 5800 
2897.17 -2002.05 5800 2189.98 -1989.08 5800 2898.12 -1989.05 5800 
2186.82 -1976.08 5800 2898.57 -1976.05 5800 2183.66 -1963.08 5800 
2898.69 -1963.05 5800 2180.5 -1950.07 5800 2898.81 -1950.05 5800 
2177.33 -1937.07 5800 2898.92 -1937.05 5800 2174.17 -1924.07 5800 
2174.93 -1927.17 5800 2899.04 -1924.05 5800 2171.01 -1911.07 5800 
2899.16 -1911.05 5800 2167.85 -1898.07 5800 2899.28 -1898.05 5800 
2164.69 -1885.07 5800 2899.39 -1885.05 5800 2161.53 -1872.07 5800 
2899.51 -1872.04 5800 2158.37 -1859.07 5800 2899.63 -1859.04 5800 
3885.99 -1862.81 5800 3883.96 -1859.01 5800 3898.34 -1859.01 5800 
2155.21 -1846.07 5800 2899.75 -1846.04 5800 3875.41 -1846.01 5800 
3914.99 -1853.79 5800 3943.99 -1846.24 5800 3944.92 -1846.01 5800 
2152.04 -1833.07 5800 2899.9 -1833.04 5800 3863.17 -1833.01 5800 
3973 -1838.87 5800 3996.06 -1833 5800 550.879 -1824.95 5800 
538.856 -1820.12 5800 566.011 -1820.12 5800 2148.88 -1820.07 5800 
2899.96 -1822.64 5800 2899.98 -1820.04 5800 3856.99 -1828.05 5800 
3852.22 -1820.01 5800 4002 -1831.49 5800 4031 -1824.12 5800 
4047.2 -1820 5800 521.879 -1811.32 5800 510.562 -1807.12 5800 
579.88 -1818.14 5800 607.505 -1807.12 5800 2145.72 -1807.06 5800 
2145.94 -1807.94 5800 2913.08 -1807.04 5800 3844.52 -1807.01 5800 
4060 -1816.75 5800 4089 -1809.37 5800 4099.44 -1807 5800 
492.879 -1800.55 5800 475.56 -1794.12 5800 608.882 -1806.57 5800 
637.884 -1795.1 5800 640.094 -1794.12 5800 2142.56 -1794.06 5800 
2920.09 -1794.04 5800 3836.82 -1794.01 5800 4118 -1802.88 5800 
4147 -1797.11 5800 4162.65 -1793.99 5800 463.878 -1789.78 5800 
440.557 -1781.12 5800 666.886 -1783.43 5800 672.689 -1781.11 5800 
2139.4 -1781.06 5800 2928.96 -1783.4 5800 2931.3 -1781.04 5800 
3829.11 -1781.01 5800 4176.01 -1791.34 5800 4205.01 -1785.57 5800 
4228.03 -1780.99 5800 405.878 -1768.24 5800 405.555 -1768.12 5800 
434.878 -1779.01 5800 695.888 -1771.86 5800 705.281 -1768.11 5800 
2136.24 -1768.06 5800 2941.77 -1768.03 5800 3828 -1779.12 5800 
3821.41 -1768 5800 4234.01 -1779.8 5800 4263.01 -1774.03 5800 
4292.01 -1768.26 5800 4293.37 -1767.99 5800 376.878 -1757.47 5800 
370.553 -1755.12 5800 724.89 -1760.29 5800 737.873 -1755.11 5800 
2133.08 -1755.06 5800 2952.6 -1755.03 5800 3813.71 -1755 5800 
4321.01 -1762.39 5800 4350.02 -1756.42 5800 4357.01 -1754.98 5800 
347.878 -1746.7 5800 335.551 -1742.12 5800 753.891 -1748.72 5800 
770.465 -1742.11 5800 2129.92 -1742.06 5800 2957.97 -1748.6 5800 
2963.42 -1742.03 5800 3806.01 -1742 5800 4379.02 -1750.46 5800 
4408.02 -1744.49 5800 4420.22 -1741.98 5800 318.877 -1735.93 5800 
300.548 -1729.12 5800 782.893 -1737.15 5800 803.058 -1729.11 5800 
2126.76 -1729.06 5800 2974.26 -1729.03 5800 3799 -1730.18 5800 
3798.3 -1729 5800 4437.02 -1738.53 5800 4463.9 -1728.98 5800 
289.877 -1725.16 5800 265.546 -1716.12 5800 811.895 -1725.58 5800 
835.65 -1716.1 5800 2123.59 -1716.06 5800 2985.11 -1716.03 5800 
3790.6 -1716 5800 4466.02 -1727.93 5800 4477.18 -1715.98 5800 
231.877 -1703.62 5800 230.544 -1703.12 5800 260.877 -1714.39 5800 
840.897 -1714.01 5800 868.242 -1703.1 5800 2120.26 -1703.06 5800 
2986.97 -1713.8 5800 2995.72 -1703.03 5800 3782.9 -1703 5800 
4489.31 -1702.98 5800 202.877 -1692.85 5800 195.542 -1690.12 5800 
869.899 -1702.44 5800 898.901 -1690.87 5800 900.834 -1690.1 5800 
2116.85 -1690.06 5800 2116.94 -1690.42 5800 3006.34 -1690.03 5800 
3775.19 -1690 5800 4495.02 -1696.85 5800 4501.44 -1689.97 5800 
173.877 -1682.08 5800 160.539 -1677.12 5800 927.903 -1679.3 5800 
933.426 -1677.1 5800 2113.44 -1677.06 5800 3015.98 -1678.29 5800 
3017.01 -1677.03 5800 3770 -1681.22 5800 3767.58 -1677 5800 
4513.57 -1676.97 5800 144.876 -1671.31 5800 128.049 -1664.12 5800 
956.905 -1667.73 5800 966.018 -1664.09 5800 2110.03 -1664.06 5800 
3027.6 -1664.02 5800 3760.73 -1664 5800 4524.03 -1665.77 5800 
4525.71 -1663.97 5800 115.876 -1658.59 5800 100.013 -1651.12 5800 
985.907 -1656.16 5800 998.61 -1651.09 5800 2106.63 -1651.05 5800 
3038.2 -1651.02 5800 3753.89 -1651 5800 4537.84 -1650.97 5800 
86.8765 -1644.94 5800 72.4116 -1638.12 5800 1014.91 -1644.59 5800 
1030.89 -1638.09 5800 2103.22 -1638.05 5800 3044.98 -1642.7 5800 
3048.79 -1638.02 5800 3747.05 -1638 5800 4549.97 -1637.97 5800 
57.8765 -1631.28 5800 44.81 -1625.12 5800 1043.91 -1632.74 5800 
1062.48 -1625.09 5800 2099.81 -1625.05 5800 3059.39 -1625.02 5800 
3741 -1626.51 5800 3740.21 -1625 5800 4553.03 -1634.69 5800 
4562.1 -1624.97 5800 28.8766 -1617.62 5800 17.2083 -1612.12 5800 
1072.91 -1620.79 5800 1094.02 -1612.09 5800 2096.4 -1612.05 5800 
3069.98 -1612.02 5800 3733.36 -1612 5800 4574.24 -1611.97 5800 
-0.123372 -1603.96 5800 -10.3934 -1599.12 5800 1101.91 -1608.83 5800 
1125.57 -1599.08 5800 2092.99 -1599.05 5800 3073.98 -1607.11 5800 
3080.58 -1599.02 5800 3726.52 -1598.99 5800 4582.03 -1603.61 5800 
4586.37 -1598.96 5800 -29.1233 -1590.3 5800 -37.995 -1586.12 5800 
1130.92 -1596.88 5800 1157.11 -1586.08 5800 2089.59 -1586.05 5800 
3091.17 -1586.02 5800 3719.65 -1585.99 5800 4598.5 -1585.96 5800 
-58.1233 -1576.64 5800 -65.5967 -1573.12 5800 1159.92 -1584.92 5800 
1188.65 -1573.08 5800 2086.65 -1573.05 5800 2087.95 -1579.81 5800 
3101.77 -1573.01 5800 3712.81 -1572.99 5800 4610.59 -1572.96 5800 
-87.1232 -1562.98 5800 -92.824 -1560.12 5800 1188.92 -1572.97 5800 
1217.92 -1561.01 5800 1220.19 -1560.08 5800 2084.89 -1560.05 5800 
3102.99 -1571.52 5800 3112.36 -1560.01 5800 3712.01 -1571.58 5800 
3705.39 -1559.99 5800 4611.04 -1572.48 5800 4622.57 -1559.96 5800 
-116.123 -1548.63 5800 -118.303 -1547.12 5800 1246.92 -1549.06 5800 
1251.73 -1547.08 5800 2085.27 -1547.05 5800 3122.96 -1547.01 5800 
3698 -1546.99 5800 4634.54 -1546.96 5800 -132.508 -1534.12 5800 
1275.93 -1537.1 5800 1283.28 -1534.07 5800 2087.95 -1536.47 5800 
2088.76 -1534.05 5800 3131.99 -1535.93 5800 3133.55 -1534.01 5800 
3690.53 -1533.99 5800 4640.04 -1540.98 5800 4646.51 -1533.96 5800 
-141.402 -1521.12 5800 1304.93 -1525.15 5800 1314.82 -1521.07 5800 
2092.12 -1521.04 5800 3144.15 -1521.01 5800 3683.06 -1520.99 5800 
4658.48 -1520.96 5800 -145.121 -1514.22 5800 -148.429 -1508.12 5800 
1333.93 -1513.07 5800 1342.37 -1508.07 5800 2095.17 -1508.04 5800 
3154.82 -1508.01 5800 3683.01 -1520.91 5800 3675.58 -1507.99 5800 
4669.04 -1509.49 5800 4670.46 -1507.95 5800 -155.073 -1495.12 5800 
1361.11 -1495.07 5800 2098.46 -1495.04 5800 3160.13 -1495.01 5800 
3668.11 -1494.99 5800 4682.43 -1494.95 5800 -161.697 -1482.12 5800 
1362.93 -1493.8 5800 1379.85 -1482.07 5800 2099.55 -1482.04 5800 
3160.99 -1492.48 5800 3164.58 -1482 5800 3660.64 -1481.99 5800 
4694.4 -1481.95 5800 -168.321 -1469.12 5800 1391.93 -1473.69 5800 
1397.87 -1469.06 5800 2099.82 -1469.04 5800 3169.04 -1469 5800 
3654.01 -1470.46 5800 3653.17 -1468.99 5800 4698.05 -1477.99 5800 
4706.37 -1468.95 5800 -174.118 -1457.74 5800 -174.945 -1456.12 5800 
1417.34 -1456.06 5800 2100.09 -1456.04 5800 3173.49 -1456 5800 
3645.69 -1455.99 5800 4718.34 -1455.95 5800 -181.57 -1443.12 5800 
1420.94 -1453.57 5800 1428.95 -1443.06 5800 2100.35 -1443.04 5800 
3177.95 -1443 5800 3638.22 -1442.99 5800 4727.05 -1446.49 5800 
4730.32 -1442.95 5800 -188.194 -1430.12 5800 1443.02 -1430.06 5800 
2099.7 -1430.04 5800 3182.4 -1430 5800 3630.75 -1429.98 5800 
4742.29 -1429.95 5800 -194.818 -1417.12 5800 1449.94 -1425.31 5800 
1457.38 -1417.06 5800 2098.74 -1417.04 5800 3186.86 -1417 5800 
3625.02 -1420.01 5800 3623.28 -1416.98 5800 4754.32 -1416.95 5800 
-201.442 -1404.11 5800 1468.34 -1404.06 5800 2097.96 -1404.04 5800 
3190 -1407.82 5800 3191 -1404 5800 3615.8 -1403.98 5800 
4756.06 -1415.09 5800 4766.66 -1403.94 5800 -203.115 -1400.83 5800 
-208.066 -1391.11 5800 1478.94 -1393.13 5800 1480.82 -1391.06 5800 
2097.3 -1391.03 5800 3193.98 -1391 5800 3608.33 -1390.98 5800 
4779.04 -1390.94 5800 -214.69 -1378.11 5800 1492.63 -1378.05 5800 
2096.75 -1378.03 5800 3196.43 -1378 5800 3600.86 -1377.98 5800 
4785.06 -1384.62 5800 4791.41 -1377.94 5800 -221.314 -1365.11 5800 
1504.49 -1365.05 5800 2096.28 -1365.03 5800 3198.46 -1364.99 5800 
3596.02 -1369.56 5800 3593.44 -1364.98 5800 4803.79 -1364.94 5800 
-227.938 -1352.11 5800 1507.95 -1361.27 5800 1516.38 -1352.05 5800 
2095.87 -1352.03 5800 3198.83 -1351.99 5800 3587.55 -1351.98 5800 
4814.06 -1354.15 5800 4816.17 -1351.94 5800 -232.111 -1343.92 5800 
-234.562 -1339.11 5800 1528.28 -1339.05 5800 2095.51 -1339.03 5800 
2540.33 -1339.02 5800 2551.98 -1347.79 5800 2576.27 -1339.01 5800 
[...]
POINT_DATA 15777
SCALARS Pressure double
LOOKUP_TABLE default
3.0944677622 3.0944677622 3.0944677622 3.0944677622 3.0944677622 3.0944677622 3.0944677622 3.0944677622 3.0944677622 
3.0944677622 3.0944677622 3.0944677622 3.0944677622 3.0944677622 3.0944677622 3.0944677622 3.0944677622 3.0944677622 
3.0944677622 3.0944677622 3.0944677622 3.0944677622 3.0944677622 3.0944677622 3.0944677622 3.0944677622 3.0944677622 
3.0944677622 3.0944677622 3.0944677622 3.0944677622 3.0944677622 3.0944677622 3.0944677622 3.0944677622 3.0944677622 
3.0944677622 3.0944677622 3.0944677622 3.0944677622 3.0944677622 3.0944677622 3.0944677622 3.0944677622 3.0944677622 
3.0944677622 3.0944677622 3.0944677622 3.0944677622 3.0944677622 3.0944677622 3.0944677622 3.0944677622 3.0944677622 
3.0944677622 3.0944677622 3.0944677622 3.0944677622 3.0944677622 3.0944677622 3.0944677622 3.0944677622 3.0944677622 
3.0944677622 3.0944677622 3.0944677622 3.0944677622 3.0944677622 3.0944677622 3.0944677622 3.0944677622 3.0944677622 
3.0944677622 3.0944677622 3.0944677622 3.0944677622 3.0944677622 3.0944677622 3.0944677622 3.0944677622 3.0944677622 
3.0944677622 3.0944677622 3.0944677622 3.0944677622 3.0944677622 3.0944677622 3.0944677622 3.0944677622 3.0944677622 
3.0944677622 3.0944677622 3.0944677622 3.0886313009 3.0886313009 3.0886313009 3.0944677622 3.0944677622 3.0886313009 
3.0886313009 3.0886313009 3.0886313009 3.0944677622 3.0944677622 3.0886313009 3.0886313009 3.0886313009 3.0886313009 
3.0886313009 3.0886313009 3.0944677622 3.0944677622 3.0944677622 3.0886313009 3.0886313009 3.0886313009 3.0886313009 
3.0886313009 3.0886313009 3.0886313009 3.0886313009 3.0886313009 3.0944677622 3.0944677622 3.0944677622 3.0886313009 
3.0886313009 3.0886313009 3.0886313009 3.0886313009 3.0886313009 3.0886313009 3.0886313009 3.0886313009 3.0944677622 
3.0944677622 3.0886313009 3.0886313009 3.0886313009 3.0886313009 3.0886313009 3.0886313009 3.0886313009 3.0886313009 
3.0944677622 3.0944677622 3.0944677622 3.0886313009 3.0886313009 3.0886313009 3.0886313009 3.0886313009 3.0886313009 
3.0886313009 3.0886313009 3.0886313009 3.0944677622 3.0944677622 3.0886313009 3.0886313009 3.0886313009 3.0886313009 
3.0886313009 3.0886313009 3.0886313009 3.0886313009 3.0886313009 3.0886313009 3.0944677622 3.0944677622 3.0886313009 
3.0886313009 3.0886313009 3.0886313009 3.0886313009 3.0886313009 3.0886313009 3.0886313009 3.0944677622 3.0944677622 
3.0944677622 3.0886313009 3.0886313009 3.0886313009 3.0886313009 3.0886313009 3.0886313009 3.0886313009 3.0886313009 
3.0944677622 3.0944677622 3.0886313009 3.0886313009 3.0886313009 3.0886313009 3.0886313009 3.0886313009 3.0886313009 
3.0886313009 3.0944677622 3.0944677622 3.0886313009 3.0886313009 3.0886313009 3.0886313009 3.0886313009 3.0886313009 
3.0886313009 3.0886313009 3.0944677622 3.0944677622 3.0944677622 3.0886313009 3.0886313009 3.0886313009 3.0886313009 
3.0886313009 3.0886313009 3.0886313009 3.0944677622 3.0944677622 3.0944677622 3.0886313009 3.0886313009 3.0886313009 
3.0886313009 3.0886313009 3.0886313009 3.0886313009 3.0944677622 3.0944677622 3.0944677622 3.0886313009 3.0886313009 
3.0886313009 3.0886313009 3.0886313009 3.0886313009 3.0886313009 3.0944677622 3.0944677622 3.0886313009 3.0886313009 
3.0886313009 3.0886313009 3.0886313009 3.0886313009 3.0886313009 3.0944677622 3.0944677622 3.0886313009 3.0886313009 
3.0886313009 3.0886313009 3.0886313009 3.0886313009 3.0944677622 3.0944677622 3.0944677622 3.0886313009 3.0886313009 
3.0886313009 3.0886313009 3.0886313009 3.0886313009 3.0944677622 3.0944677622 3.0886313009 3.0886313009 3.0886313009 
3.0886313009 3.0886313009 3.0886313009 3.0886313009 3.0886313009 3.0944677622 3.0944677622 3.0886313009 3.0886313009 
3.0886313009 3.0886313009 3.0886313009 3.0886313009 3.0944677622 3.0944677622 3.0944677622 3.0886313009 3.0886313009 
3.0886313009 3.0886313009 3.0886313009 3.0886313009 3.0886313009 3.0944677622 3.0944677622 3.0886313009 3.0886313009 
3.0886313009 3.0886313009 3.0886313009 3.0886313009 3.0944677622 3.0944677622 3.0944677622 3.0886313009 3.0886313009 
3.0886313009 3.0886313009 3.0886313009 3.0886313009 3.0886313009 3.0944677622 3.0944677622 3.0944677622 3.0886313009 
3.0886313009 3.0886313009 3.0886313009 3.0886313009 3.0886313009 3.0886313009 3.0886313009 3.0944677622 3.0944677622 
3.0886313009 3.0886313009 3.0886313009 3.0886313009 3.0886313009 3.0944677622 3.0944677622 3.0944677622 3.0944677622 
3.0886313009 3.0886313009 3.0886313009 3.0886313009 3.0886313009 3.0886313009 3.0944677622 3.0944677622 3.0886313009 
3.0886313009 3.0886313009 3.0886313009 3.0886313009 3.0886313009 3.0944677622 3.0944677622 3.0886313009 3.0886313009 
3.0886313009 3.0886313009 3.0886313009 3.0886313009 3.0944677622 3.0944677622 3.0886313009 3.0886313009 3.0886313009 
3.0886313009 3.0886313009 3.0944677622 3.0944677622 3.0944677622 3.0886313009 3.0886313009 3.0886313009 3.0886313009 
3.0886313009 3.0944677622 3.0944677622 3.0886313009 3.0886313009 3.0886313009 3.0886313009 3.0886313009 3.0886313009 
3.0886313009 3.0944677622 3.0944677622 3.0886313009 3.0886313009 3.0886313009 3.0886313009 3.0886313009 3.0944677622 
3.0944677622 3.0886313009 3.0886313009 3.0886313009 3.0886313009 3.0886313009 3.0944677622 3.0944677622 3.0886313009 
3.0886313009 3.0886313009 3.0886313009 3.0886313009 3.0944677622 3.0944677622 3.0886313009 3.0886313009 3.0886313009 
3.0886313009 3.0886313009 3.0944677622 3.0944677622 3.0944677622 3.0886313009 3.0886313009 3.0886313009 3.0886313009 
3.0886313009 3.0886313009 3.0886313009 3.0944677622 3.0944677622 3.0886313009 3.0886313009 3.0886313009 3.0886313009 
3.0944677622 3.0944677622 3.0886313009 3.0886313009 3.0886313009 3.0886313009 3.0886313009 3.0944677622 3.0944677622 
3.0886313009 3.0886313009 3.0886313009 3.0886313009 3.0886313009 3.0886313009 3.0944677622 3.0944677622 3.0886313009 
3.0886313009 3.0886313009 3.0886313009 3.0886313009 3.0886313009 3.0944677622 3.1003042234 3.1003042234 3.1003042234 
3.0944677622 3.0886313009 3.0886313009 3.0886313009 3.0886313009 3.0886313009 3.0944677622 3.1003042234 3.1003042234 
3.1003042234 3.1003042234 3.0944677622 3.0886313009 3.0886313009 3.0886313009 3.0886313009 3.0944677622 3.1003042234 
3.1003042234 3.1003042234 3.1003042234 3.1003042234 3.0944677622 3.0886313009 3.0886313009 3.0886313009 3.0886313009 
3.0886313009 3.0944677622 3.1003042234 3.1003042234 3.1003042234 3.1003042234 3.0944677622 3.0886313009 3.0886313009 
3.0886313009 3.0886313009 3.0886313009 3.0944677622 3.1003042234 3.1003042234 3.1003042234 3.1003042234 3.1003042234 
3.0944677622 3.0886313009 3.0886313009 3.0886313009 3.0886313009 3.0886313009 3.0886313009 3.0944677622 3.1003042234 
3.1003042234 3.1003042234 3.1003042234 3.0944677622 3.0886313009 3.0886313009 3.0886313009 3.0886313009 3.0886313009 
3.0944677622 3.1003042234 3.1003042234 3.0944677622 3.0886313009 3.0886313009 3.0886313009 3.0886313009 3.0886313009 
3.0944677622 3.0944677622 3.1003042234 3.1003042234 3.1003042234 3.0944677622 3.0886313009 3.0886313009 3.0886313009 
3.0886313009 3.0944677622 3.1003042234 3.1003042234 3.0944677622 3.0886313009 3.0886313009 3.0886313009 3.0886313009 
3.0886313009 3.0886313009 3.0944677622 3.1003042234 3.1003042234 3.1003042234 3.1003042234 3.0944677622 3.0886313009 
3.0886313009 3.0886313009 3.0886313009 3.0886313009 3.0886313009 3.0944677622 3.1003042234 3.1003042234 3.0944677622 
3.0886313009 3.0886313009 3.0886313009 3.0886313009 3.0886313009 3.0886313009 3.0944677622 3.1003042234 3.1003042234 
3.0944677622 3.0886313009 3.0886313009 3.0886313009 3.0886313009 3.0944677622 3.1003042234 3.1003042234 3.1003042234 
3.0944677622 3.0886313009 3.0886313009 3.0886313009 3.0886313009 3.0886313009 3.0944677622 3.1003042234 3.1003042234 
3.1003042234 3.0944677622 3.0886313009 3.0886313009 3.0886313009 3.0886313009 3.0886313009 3.0886313009 3.0944677622 
3.1003042234 3.1003042234 3.0944677622 3.0886313009 3.0886313009 3.0886313009 3.0886313009 3.0944677622 3.1003042234 
3.1003042234 3.1003042234 3.0944677622 3.0886313009 3.0886313009 3.0886313009 3.0886313009 3.0886313009 3.0944677622 
3.1003042234 3.1003042234 3.0944677622 3.0886313009 3.0886313009 3.0886313009 3.0886313009 3.0886313009 3.0944677622 
3.1003042234 3.1003042234 3.1003042234 3.0944677622 3.0886313009 3.0886313009 3.0886313009 3.0886313009 3.0886313009 
3.0944677622 3.1003042234 3.1003042234 3.1003042234 3.0944677622 3.0886313009 3.0886313009 3.0886313009 3.0886313009 
3.0886313009 3.0944677622 3.1003042234 3.1003042234 3.0944677622 3.0886313009 3.0886313009 3.0886313009 3.0886313009 
3.0886313009 3.0944677622 3.1003042234 3.1003042234 3.1003042234 3.0944677622 3.0886313009 3.0886313009 3.0886313009 
3.0886313009 3.0886313009 3.0944677622 3.1003042234 3.1003042234 3.0944677622 3.0886313009 3.0886313009 3.0886313009 
3.0886313009 3.0886313009 3.0944677622 3.1003042234 3.1003042234 3.1003042234 3.0944677622 3.0886313009 3.0886313009 
3.0886313009 3.0886313009 3.0886313009 3.0886313009 3.0944677622 3.1003042234 3.1003042234 3.0944677622 3.0886313009 
3.0886313009 3.0886313009 3.0886313009 3.0886313009 3.0944677622 3.0944677622 3.1003042234 3.1003042234 3.0944677622 
3.0886313009 3.0886313009 3.0886313009 3.0886313009 3.0886313009 3.0886313009 3.0944677622 3.1003042234 3.1003042234 
3.1003042234 3.0944677622 3.0886313009 3.0886313009 3.0886313009 3.0886313009 3.0886313009 3.0944677622 3.1003042234 
3.1003042234 3.0944677622 3.0886313009 3.0886313009 3.0886313009 3.0886313009 3.0886313009 3.0886313009 3.0944677622 
3.1003042234 3.1061406847 3.1061406847 3.1061406847 3.1003042234 3.0944677622 3.0886313009 3.0886313009 3.0886313009 
3.0886313009 3.0944677622 3.1003042234 3.1061406847 3.1061406847 3.1061406847 3.1061406847 3.1003042234 3.1003042234 
3.0944677622 3.0886313009 3.0886313009 3.0886313009 3.0886313009 3.0886313009 3.0886313009 3.0944677622 3.0944677622 
3.1003042234 3.1061406847 3.1061406847 3.1061406847 3.1061406847 3.1003042234 3.0944677622 3.0886313009 3.0886313009 
3.0886313009 3.0886313009 3.0886313009 3.0944677622 3.1003042234 3.1061406847 3.1061406847 3.1061406847 3.1061406847 
3.1003042234 3.0944677622 3.0886313009 3.0886313009 3.0886313009 3.0886313009 3.0886313009 3.0886313009 3.0944677622 
3.1003042234 3.1003042234 3.1061406847 3.1061406847 3.1061406847 3.1061406847 3.1061406847 3.1003042234 3.0944677622 
3.0886313009 3.0886313009 3.0886313009 3.0886313009 3.0944677622 3.1003042234 3.1061406847 3.1061406847 3.1061406847 
3.1003042234 3.0944677622 3.0886313009 3.0886313009 3.0886313009 3.0886313009 3.0944677622 3.1003042234 3.1061406847 
3.1061406847 3.1061406847 3.1003042234 3.0944677622 3.0886313009 3.0886313009 3.0886313009 3.0886313009 3.0886313009 
3.0886313009 3.0886313009 3.0944677622 3.1003042234 3.1061406847 3.1061406847 3.1003042234 3.0944677622 3.0886313009 
3.0886313009 3.0886313009 3.0886313009 3.0944677622 3.1003042234 3.1061406847 3.1061406847 3.1061406847 3.1003042234 
3.0944677622 3.0886313009 3.0886313009 3.0886313009 3.0886313009 3.0886313009 3.0886313009 3.0944677622 3.1003042234 
3.1061406847 3.1061406847 3.1061406847 3.1003042234 3.0944677622 3.0886313009 3.0886313009 3.0886313009 3.0886313009 
3.0886313009 3.0944677622 3.1003042234 3.1003042234 3.1061406847 3.1061406847 3.1003042234 3.0944677622 3.0886313009 
3.0886313009 3.0886313009 3.0886313009 3.0886313009 3.0944677622 3.1003042234 3.1061406847 3.1061406847 3.1061406847 
3.1003042234 3.0944677622 3.0886313009 3.0886313009 3.0886313009 3.0886313009 3.0886313009 3.0944677622 3.1003042234 
3.1061406847 3.1061406847 3.1003042234 3.0944677622 3.0886313009 3.0886313009 3.0886313009 3.0886313009 3.0886313009 
3.0944677622 3.1003042234 3.1061406847 3.1061406847 3.1003042234 3.0944677622 3.0886313009 3.0886313009 3.0886313009 
3.0886313009 3.0886313009 3.0944677622 3.1003042234 3.1061406847 3.1061406847 3.1061406847 3.1003042234 3.0944677622 
3.0886313009 3.0886313009 3.0886313009 3.0886313009 3.0886313009 3.0944677622 3.1003042234 3.1061406847 3.1061406847 
3.1061406847 3.1003042234 3.0944677622 3.0886313009 3.0827948397 3.0827948397 3.0827948397 3.0886313009 3.0886313009 
3.0886313009 3.0886313009 3.0944677622 3.1003042234 3.1061406847 3.1119771459 3.1119771459 3.1119771459 3.1119771459 
3.1061406847 3.1003042234 3.0944677622 3.0886313009 3.0827948397 3.0827948397 3.0827948397 3.0827948397 3.0827948397 
3.0886313009 3.0886313009 3.0886313009 3.0886313009 3.0944677622 3.1003042234 3.1061406847 3.1119771459 3.1119771459 
3.1119771459 3.1119771459 3.1061406847 3.1003042234 3.0944677622 3.0886313009 3.0827948397 3.0827948397 3.0827948397 
3.0827948397 3.0886313009 3.0886313009 3.0886313009 3.0886313009 3.0886313009 3.0944677622 3.1003042234 3.1061406847 
3.1061406847 3.1119771459 3.1119771459 3.1119771459 3.1061406847 3.1003042234 3.1003042234 3.0944677622 3.0886313009 
3.0827948397 3.0827948397 3.0827948397 3.0886313009 3.0886313009 3.0886313009 3.0944677622 3.0944677622 3.1003042234 
3.1061406847 3.1119771459 3.1119771459 3.1119771459 3.1061406847 3.1061406847 3.1003042234 3.0944677622 3.0886313009 
3.0827948397 3.0827948397 3.0827948397 3.0827948397 3.0827948397 3.0886313009 3.0886313009 3.0886313009 3.0886313009 
3.0944677622 3.1003042234 3.1061406847 3.1119771459 3.1119771459 3.1119771459 3.1119771459 3.1119771459 3.1061406847 
3.1003042234 3.0944677622 3.0886313009 3.0827948397 3.0827948397 3.0827948397 3.0827948397 3.0886313009 3.0886313009 
3.0886313009 3.0944677622 3.1003042234 3.1061406847 3.1061406847 3.1119771459 3.1119771459 3.1119771459 3.1061406847 
3.1061406847 3.1003042234 3.0944677622 3.0886313009 3.0827948397 3.0827948397 3.0886313009 3.0886313009 3.0886313009 
3.0886313009 3.0886313009 3.0886313009 3.0944677622 3.1003042234 3.1061406847 3.1119771459 3.1119771459 3.1061406847 
3.1003042234 3.0944677622 3.0886313009 3.0886313009 3.0827948397 3.0827948397 3.0827948397 3.0886313009 3.0886313009 
3.0886313009 3.0944677622 3.0944677622 3.1003042234 3.1003042234 3.1061406847 3.1119771459 3.1119771459 3.1119771459 
3.1119771459 3.1061406847 3.1003042234 3.0944677622 3.0886313009 3.0827948397 3.0827948397 3.0886313009 3.0886313009 
3.0886313009 3.0886313009 3.0944677622 3.1003042234 3.1061406847 3.1119771459 3.1119771459 3.1061406847 3.1003042234 
3.0944677622 3.0886313009 3.0827948397 3.0827948397 3.0827948397 3.0886313009 3.0886313009 3.0886313009 3.0944677622 
3.1003042234 3.1061406847 3.1119771459 3.1119771459 3.1061406847 3.1061406847 3.1003042234 3.0944677622 3.0886313009 
3.0827948397 3.0827948397 3.0827948397 3.0886313009 3.0886313009 3.0886313009 3.0886313009 3.0944677622 3.1003042234 
3.1061406847 3.1119771459 3.1119771459 3.1119771459 3.1119771459 3.1061406847 3.1003042234 3.0944677622 3.0886313009 
3.0827948397 3.0827948397 3.0886313009 3.0886313009 3.0886313009 3.0944677622 3.1003042234 3.1061406847 3.1119771459 
3.1178136072 3.1178136072 3.1178136072 3.1178136072 3.1119771459 3.1061406847 3.1003042234 3.1003042234 3.0944677622 
3.0886313009 3.0827948397 3.0827948397 3.0827948397 3.0886313009 3.0886313009 3.0827948397 3.0827948397 3.0827948397 
3.0827948397 3.0827948397 3.0827948397 3.0827948397 3.0886313009 3.0944677622 3.0944677622 3.1003042234 3.1061406847 
3.1119771459 3.1178136072 3.1178136072 3.1178136072 3.1178136072 3.1119771459 3.1061406847 3.1003042234 3.0944677622 
3.0886313009 3.0827948397 3.0827948397 3.0827948397 3.0886313009 3.0886313009 3.0886313009 3.0827948397 3.0827948397 
3.0827948397 3.0827948397 3.0886313009 3.0886313009 3.0944677622 3.1003042234 3.1061406847 3.1119771459 3.1119771459 
3.1178136072 3.1178136072 3.1178136072 3.1119771459 3.1119771459 3.1061406847 3.1003042234 3.0944677622 3.0886313009 
3.0827948397 3.0827948397 3.0886313009 3.0886313009 3.0827948397 3.0827948397 3.0827948397 3.0886313009 3.0944677622 
3.1003042234 3.1061406847 3.1061406847 3.1119771459 3.1178136072 3.1178136072 3.1178136072 3.1178136072 3.1119771459 
3.1061406847 3.1061406847 3.1003042234 3.0944677622 3.0886313009 3.0827948397 3.0827948397 3.0886313009 3.0886313009 
3.0886313009 3.0827948397 3.0827948397 3.0827948397 3.0827948397 3.0886313009 3.0886313009 3.0944677622 3.1003042234 
3.1061406847 3.1119771459 3.1178136072 3.1178136072 3.1119771459 3.1119771459 3.1061406847 3.1003042234 3.0944677622 
3.0886313009 3.0827948397 3.0827948397 3.0886313009 3.0886313009 3.0827948397 3.0827948397 3.0827948397 3.0827948397 
3.0827948397 3.0886313009 3.0944677622 3.1003042234 3.1061406847 3.1119771459 3.1178136072 3.1178136072 3.1178136072 
3.1178136072 3.1119771459 3.1061406847 3.1003042234 3.0944677622 3.0886313009 3.0886313009 3.0827948397 3.0827948397 
3.0827948397 3.0886313009 3.0886313009 3.0827948397 3.0827948397 3.0827948397 3.0886313009 3.0944677622 3.1003042234 
3.1061406847 3.1119771459 3.1178136072 3.1178136072 3.1178136072 3.1119771459 3.1061406847 3.1003042234 3.0944677622 
3.0886313009 3.0827948397 3.0827948397 3.0827948397 3.0886313009 3.0886313009 3.0827948397 3.0827948397 3.0827948397 
3.0827948397 3.0827948397 3.0827948397 3.0886313009 3.0944677622 3.1003042234 3.1061406847 3.1119771459 3.1119771459 
3.1178136072 3.1178136072 3.1178136072 3.1119771459 3.1061406847 3.1003042234 3.0944677622 3.0886313009 3.0827948397 
3.0827948397 3.0886313009 3.0886313009 3.0886313009 3.0827948397 3.0827948397 3.0886313009 3.0944677622 3.1003042234 
3.1061406847 3.1119771459 3.1178136072 3.1178136072 3.1178136072 3.1119771459 3.1119771459 3.1061406847 3.1061406847 
3.1003042234 3.0944677622 3.0886313009 3.0827948397 3.0827948397 3.0886313009 3.0886313009 3.0827948397 3.0827948397 
3.0827948397 3.0827948397 3.0886313009 3.0944677622 3.1003042234 3.1003042234 3.1061406847 3.1119771459 3.1178136072 
3.1236500684 3.1236500684 3.1236500684 3.1236500684 3.1236500684 3.1236500684 3.1178136072 3.1178136072 3.1119771459 
3.1061406847 3.1003042234 3.1003042234 3.0944677622 3.0886313009 3.0827948397 3.0827948397 3.0886313009 3.0886313009 
3.0827948397 3.0827948397 3.0886313009 3.0944677622 3.1003042234 3.1061406847 3.1061406847 3.1119771459 3.1178136072 
3.1178136072 3.1236500684 3.1236500684 3.1236500684 3.1236500684 3.1178136072 3.1119771459 3.1061406847 3.1003042234 
3.0944677622 3.0886313009 3.0827948397 3.0827948397 3.0827948397 3.0886313009 3.0886313009 3.0827948397 3.0827948397 
3.0827948397 3.0827948397 3.0886313009 3.0944677622 3.1003042234 3.1061406847 3.1119771459 3.1119771459 3.1178136072 
3.1236500684 3.1236500684 3.1236500684 3.1178136072 3.1178136072 3.1119771459 3.1061406847 3.1003042234 3.0944677622 
3.0886313009 3.0827948397 3.0827948397 3.0827948397 3.0886313009 3.0886313009 3.0827948397 3.0827948397 3.0827948397 
3.0886313009 3.0944677622 3.1003042234 3.1061406847 3.1119771459 3.1178136072 3.1236500684 3.1236500684 3.1236500684 
3.1178136072 3.1119771459 3.1119771459 3.1061406847 3.1003042234 3.0944677622 3.0886313009 3.0827948397 3.0827948397 
3.0886313009 3.0886313009 3.0886313009 3.0827948397 3.0827948397 3.0827948397 3.0886313009 3.0944677622 3.1003042234 
3.1061406847 3.1119771459 3.1178136072 3.1236500684 3.1236500684 3.1236500684 3.1178136072 3.1119771459 3.1061406847 
3.1061406847 3.1003042234 3.0944677622 3.0886313009 3.0827948397 3.0827948397 3.0886313009 3.0886313009 3.0886313009 
3.0827948397 3.0827948397 3.0827948397 3.0886313009 3.0886313009 3.0944677622 3.1003042234 3.1061406847 3.1119771459 
3.1178136072 3.1178136072 3.1236500684 3.1236500684 3.1236500684 3.1178136072 3.1178136072 3.1119771459 3.1061406847 
3.1003042234 3.0944677622 3.0886313009 3.0827948397 3.0827948397 3.0827948397 3.0886313009 3.0886313009 3.0827948397 
3.0827948397 3.0827948397 3.0886313009 3.0944677622 3.1003042234 3.1061406847 3.1119771459 3.1178136072 3.1236500684 
3.1236500684 3.1294865297 3.1294865297 3.1294865297 3.1294865297 3.1236500684 3.1178136072 3.1119771459 3.1119771459 
3.1061406847 3.1003042234 3.0944677622 3.0886313009 3.0827948397 3.0827948397 3.0886313009 3.0886313009 3.0827948397 