# vtk DataFile Version 4.2
vtk output
ASCII
DATASET POLYDATA
POINTS 18614 float
-592.259 -4125.6 0 -610.771 -4114.26 0 -555.258 -4123.39 0 
-551.528 -4114.26 0 -629.258 -4102.93 0 -638.515 -4097.26 0 
-544.59 -4097.26 0 -666.258 -4080.26 0 -666.258 -4080.26 0 
-537.652 -4080.25 0 -1147.27 -4063.33 0 -1151 -4063.27 0 
-1110.27 -4063.91 0 -1073.27 -4064.5 0 -1036.27 -4065.08 0 
-999.266 -4065.67 0 -962.265 -4066.25 0 -925.264 -4066.84 0 
-888.263 -4067.42 0 -851.262 -4068 0 -814.261 -4068.59 0 
-777.26 -4069.17 0 -740.259 -4069.76 0 -703.258 -4070.34 0 
-530.714 -4063.25 0 -1591.28 -4056.32 0 -1624.04 -4046.28 0 
-1554.28 -4056.9 0 -1517.28 -4057.48 0 -1480.28 -4058.07 0 
-1443.28 -4058.65 0 -1406.28 -4059.24 0 -1369.28 -4059.82 0 
-1332.27 -4060.41 0 -1295.27 -4060.99 0 -1258.27 -4061.58 0 
-1221.27 -4062.16 0 -1184.27 -4062.74 0 -523.775 -4046.25 0 
-1628.28 -4044.42 0 -1639.73 -4029.28 0 -518.251 -4032.72 0 
-516.837 -4029.25 0 -1652.59 -4012.28 0 -507.612 -4012.25 0 
-1665.28 -3995.49 0 -1665.44 -3995.28 0 -489.514 -3995.25 0 
-1678.3 -3978.28 0 -481.248 -3987.48 0 -471.415 -3978.25 0 
-1691.15 -3961.28 0 -453.316 -3961.25 0 -1702.28 -3946.57 0 
-1704.01 -3944.28 0 -444.244 -3952.72 0 -435.217 -3944.24 0 
-1716.87 -3927.28 0 -417.118 -3927.24 0 -1729.72 -3910.28 0 
-407.241 -3917.96 0 -399.019 -3910.24 0 -1739.28 -3897.64 0 
-1742.58 -3893.28 0 -380.92 -3893.24 0 -1755.43 -3876.28 0 
-370.238 -3883.21 0 -362.821 -3876.24 0 -1768.29 -3859.27 0 
-344.722 -3859.24 0 -1776.27 -3848.71 0 -1781.14 -3842.27 0 
-333.235 -3848.45 0 -326.623 -3842.23 0 -1794 -3825.27 0 
-308.524 -3825.23 0 -1806.85 -3808.27 0 -296.232 -3813.69 0 
-290.425 -3808.23 0 -1813.27 -3799.79 0 -1819.71 -3791.27 0 
-272.326 -3791.23 0 -1832.57 -3774.27 0 -259.229 -3778.93 0 
-254.228 -3774.23 0 -1845.42 -3757.27 0 -236.129 -3757.23 0 
-1850.27 -3750.86 0 -1858.28 -3740.27 0 -222.226 -3744.17 0 
-218.03 -3740.23 0 -1871.13 -3723.27 0 -199.931 -3723.22 0 
-1883.99 -3706.27 0 -185.223 -3709.41 0 -181.832 -3706.22 0 
-1887.27 -3701.93 0 -1896.84 -3689.27 0 -163.733 -3689.22 0 
-1909.7 -3672.27 0 -148.22 -3674.65 0 -145.634 -3672.22 0 
-1922.56 -3655.27 0 -127.535 -3655.22 0 -1924.27 -3653 0 
-1935.41 -3638.27 0 -111.217 -3639.89 0 -109.436 -3638.22 0 
-1948.27 -3621.27 0 -91.3374 -3621.22 0 -1961.12 -3604.26 0 
-74.2141 -3605.13 0 -73.2385 -3604.21 0 -1961.27 -3604.08 0 
-1973.98 -3587.26 0 -55.1394 -3587.21 0 -1986.83 -3570.26 0 
-37.211 -3570.37 0 -37.0405 -3570.21 0 -1998.26 -3555.15 0 
-1999.69 -3553.26 0 -18.9416 -3553.21 0 -2012.55 -3536.26 0 
-0.842759 -3536.21 0 -2025.4 -3519.26 0 -0.207965 -3535.61 0 
17.2561 -3519.21 0 -2035.26 -3506.22 0 -2038.26 -3502.26 0 
35.355 -3502.21 0 -2051.11 -3485.26 0 36.7951 -3500.85 0 
53.454 -3485.2 0 -2063.97 -3468.26 0 71.553 -3468.2 0 
-2072.26 -3457.3 0 -2076.82 -3451.26 0 73.7981 -3466.09 0 
89.6519 -3451.2 0 -2089.68 -3434.26 0 107.751 -3434.2 0 
-2102.54 -3417.26 0 110.801 -3431.33 0 125.85 -3417.2 0 
-2109.26 -3408.37 0 -2115.05 -3400.26 0 143.949 -3400.2 0 
-2122.99 -3383.26 0 147.804 -3396.57 0 162.047 -3383.19 0 
-2129.87 -3366.26 0 180.146 -3366.19 0 -2136.76 -3349.25 0 
184.807 -3361.81 0 198.245 -3349.19 0 -2143.65 -3332.25 0 
216.344 -3332.19 0 -2146.25 -3325.83 0 -2150.54 -3315.25 0 
221.81 -3327.06 0 224.939 -3315.19 0 -2157.43 -3298.25 0 
228.585 -3298.19 0 -2164.32 -3281.25 0 228.859 -3281.19 0 
-2171.2 -3264.25 0 228.785 -3264.19 0 -2178.09 -3247.25 0 
228.71 -3247.18 0 3477.9 -3248.37 0 3476.85 -3247.1 0 
3486.55 -3247.1 0 -2183.25 -3234.52 0 -2184.98 -3230.25 0 
228.635 -3230.18 0 3465.09 -3230.1 0 3514.9 -3240.73 0 
3551.78 -3230.09 0 -2191.87 -3213.25 0 228.56 -3213.18 0 
3450.95 -3213.1 0 3551.91 -3230.06 0 3588.91 -3219.38 0 
3610.72 -3213.09 0 -2198.76 -3196.25 0 228.485 -3196.18 0 
3440.9 -3203.73 0 3434.57 -3196.1 0 3625.91 -3208.71 0 
3662.91 -3198.03 0 3669.66 -3196.09 0 -2205.65 -3179.25 0 
228.41 -3179.18 0 3420.48 -3179.09 0 3699.91 -3187.36 0 
3728.6 -3179.09 0 -2212.53 -3162.25 0 228.335 -3162.18 0 
3406.39 -3162.09 0 3736.91 -3176.69 0 3773.92 -3166.01 0 
3787.54 -3162.08 0 -2219.42 -3145.25 0 228.26 -3145.18 0 
3403.91 -3159.1 0 3392.3 -3145.09 0 3810.92 -3155.34 0 
3846.48 -3145.08 0 4513.94 -3150.69 0 4491.04 -3145.06 0 
4550.94 -3159.79 0 4578.24 -3145.06 0 -2220.24 -3143.21 0 
-2226.31 -3128.24 0 228.185 -3128.18 0 3378.21 -3128.09 0 
3847.92 -3144.67 0 3884.92 -3133.99 0 3905.42 -3128.08 0 
4439.94 -3132.5 0 4421.89 -3128.06 0 4476.94 -3141.6 0 
4587.94 -3134.43 0 4592.81 -3128.06 0 -2233.2 -3111.24 0 
228.11 -3111.18 0 3366.91 -3114.46 0 3364.12 -3111.09 0 
3921.92 -3123.32 0 3958.92 -3112.64 0 3964.36 -3111.08 0 
4365.94 -3114.31 0 4352.74 -3111.07 0 4402.94 -3123.4 0 
4605.81 -3111.06 0 -2240.09 -3094.24 0 228.036 -3094.18 0 
3350.03 -3094.09 0 3995.93 -3101.97 0 4023.3 -3094.07 0 
4291.93 -3096.12 0 4283.59 -3094.07 0 4328.93 -3105.21 0 
4618.81 -3094.06 0 -2246.97 -3077.24 0 227.961 -3077.17 0 
3335.93 -3077.09 0 4032.93 -3091.3 0 4069.93 -3080.62 0 
4082.24 -3077.07 0 4217.93 -3077.92 0 4214.45 -3077.07 0 
4254.93 -3087.02 0 4624.94 -3086.04 0 4631.82 -3077.06 0 
-2253.86 -3060.24 0 228.2 -3060.17 0 3329.91 -3069.82 0 
3321.84 -3060.09 0 4106.93 -3069.95 0 4143.07 -3060.07 0 
4180.93 -3068.83 0 4145.3 -3060.07 0 4644.82 -3060.05 0 
-2257.24 -3051.9 0 -2260.75 -3043.24 0 229.936 -3043.17 0 
3307.75 -3043.09 0 4143.93 -3059.82 0 4657.82 -3043.05 0 
-2267.64 -3026.24 0 231.746 -3026.17 0 3293.66 -3026.09 0 
4661.95 -3037.65 0 4670.82 -3026.05 0 -2274.53 -3009.24 0 
233.556 -3009.17 0 3292.91 -3025.18 0 3279.57 -3009.09 0 
4683.82 -3009.05 0 -2281.42 -2992.24 0 235.366 -2992.17 0 
3265.48 -2992.09 0 4696.82 -2992.05 0 -2288.3 -2975.24 0 
237.177 -2975.17 0 3255.91 -2980.55 0 3251.39 -2975.09 0 
4698.95 -2989.27 0 4709.82 -2975.05 0 -2294.24 -2960.6 0 
-2295.19 -2958.24 0 238.987 -2958.17 0 3237.3 -2958.09 0 
4722.83 -2958.05 0 -2302.08 -2941.24 0 240.797 -2941.17 0 
3223.2 -2941.09 0 4735.83 -2941.04 0 -2308.97 -2924.23 0 
242.531 -2924.17 0 3218.91 -2935.91 0 3209.11 -2924.09 0 
4735.96 -2940.88 0 4748.83 -2924.04 0 -2315.86 -2907.23 0 
245.487 -2907.16 0 3195.02 -2907.08 0 4761.83 -2907.04 0 
-2322.75 -2890.23 0 248.013 -2890.16 0 3181.92 -2891.27 0 
3180.93 -2890.08 0 4772.96 -2892.49 0 4774.83 -2890.04 0 
-2329.63 -2873.23 0 250.196 -2873.16 0 1584.31 -2873.13 0 
1590.87 -2875.37 0 1627.87 -2883.64 0 1654.19 -2873.12 0 
3166.84 -2873.08 0 4787.83 -2873.04 0 -2331.23 -2869.29 0 
-2336.52 -2856.23 0 252.101 -2856.16 0 1534.5 -2856.13 0 
1553.87 -2862.74 0 1664.88 -2867.61 0 1701.88 -2862.43 0 
1738.88 -2857.29 0 1747.25 -2856.12 0 3152.75 -2856.08 0 
4800.83 -2856.04 0 -2343.41 -2839.23 0 253.636 -2839.16 0 
1484.69 -2839.13 0 1516.87 -2850.11 0 1775.88 -2852.14 0 
1812.88 -2847 0 1849.88 -2841.85 0 1869.56 -2839.12 0 
3144.92 -2846.64 0 3138.66 -2839.08 0 4809.96 -2844.1 0 
4813.84 -2839.04 0 -2350.3 -2822.23 0 257.107 -2822.16 0 
1434.88 -2822.13 0 1442.87 -2824.85 0 1479.87 -2837.48 0 
1886.88 -2836.71 0 1923.89 -2831.56 0 1960.89 -2826.42 0 
1991.86 -2822.11 0 3124.57 -2822.08 0 4826.84 -2822.04 0 
-2357.24 -2805.23 0 258.841 -2813.66 0 260.969 -2805.16 0 
1385.07 -2805.13 0 1405.87 -2812.23 0 1997.89 -2821.27 0 
2034.89 -2816.13 0 2071.89 -2810.99 0 2108.89 -2805.84 0 
2114.17 -2805.11 0 3110.47 -2805.08 0 4839.84 -2805.03 0 
-2364.31 -2788.23 0 264.789 -2788.16 0 1335.26 -2788.13 0 
1368.87 -2799.6 0 2145.89 -2800.7 0 2182.89 -2795.55 0 
2189.72 -2788.1 0 3107.92 -2802 0 3096.38 -2788.08 0 
4846.97 -2795.71 0 4852.84 -2788.03 0 -2368.23 -2778.9 0 
-2371.48 -2771.23 0 268.123 -2771.16 0 1285.46 -2771.13 0 
1294.87 -2774.34 0 1331.87 -2786.97 0 2200.33 -2771.1 0 
3082.29 -2771.08 0 4865.84 -2771.03 0 -2378.7 -2754.23 0 
271.059 -2754.15 0 1235.65 -2754.13 0 1257.87 -2761.71 0 
2206.22 -2754.1 0 3073.67 -2754.08 0 4878.84 -2754.03 0 
-2385.91 -2737.23 0 274.459 -2737.15 0 1185.84 -2737.13 0 
1220.87 -2749.09 0 2209.63 -2737.1 0 3076.21 -2737.08 0 
4883.97 -2747.33 0 4891.84 -2737.03 0 -2393.13 -2720.22 0 
277.93 -2720.15 0 1136.03 -2720.13 0 1146.87 -2723.83 0 
1183.87 -2736.46 0 2213.05 -2720.1 0 3079.6 -2720.08 0 
4904.85 -2720.03 0 -2400.34 -2703.22 0 281.4 -2703.15 0 
1092.44 -2703.13 0 1109.87 -2711.2 0 2216.47 -2703.1 0 
3083.02 -2703.08 0 4917.85 -2703.03 0 -2405.22 -2691.73 0 
-2407.56 -2686.22 0 284.871 -2686.15 0 1062.15 -2686.13 0 
1072.87 -2692.7 0 2219.88 -2686.1 0 3086.43 -2686.07 0 
4920.97 -2698.94 0 4930.85 -2686.02 0 -2414.78 -2669.22 0 
288.341 -2669.15 0 1034.42 -2669.13 0 1035.87 -2670.02 0 
2219.9 -2686 0 2223.3 -2669.1 0 3089.85 -2669.07 0 
4943.85 -2669.02 0 -2421.99 -2652.22 0 291.812 -2652.15 0 
1006.7 -2652.13 0 2226.71 -2652.1 0 3093.27 -2652.07 0 
4956.85 -2652.02 0 -2429.21 -2635.22 0 295.282 -2635.15 0 
978.966 -2635.13 0 998.871 -2647.33 0 2230.13 -2635.09 0 
3096.68 -2635.07 0 4957.98 -2650.55 0 4969.85 -2635.02 0 
-2436.42 -2618.22 0 295.853 -2632.35 0 298.753 -2618.15 0 
958.761 -2618.13 0 961.872 -2624.65 0 2233.55 -2618.09 0 
3100.1 -2618.07 0 4982.85 -2618.02 0 -2442.22 -2604.56 0 
-2443.64 -2601.22 0 302.223 -2601.14 0 950.793 -2601.13 0 
2236.96 -2601.09 0 3103.51 -2601.07 0 4994.98 -2606.86 0 
5000.51 -2601.02 0 -2450.85 -2584.22 0 305.693 -2584.14 0 
943.026 -2584.13 0 2240.38 -2584.09 0 3106.93 -2584.07 0 
5027.29 -2584.02 0 -2458.07 -2567.22 0 309.164 -2567.14 0 
935.452 -2567.13 0 2243.79 -2567.09 0 3107.93 -2579.07 0 
3110.34 -2567.07 0 5031.98 -2581.12 0 5054.82 -2567.01 0 
-2465.28 -2550.22 0 312.634 -2550.14 0 928.065 -2550.13 0 
2247.21 -2550.09 0 3113.76 -2550.07 0 5068.99 -2558.26 0 
5082.35 -2550.01 0 -2472.5 -2533.22 0 316.105 -2533.14 0 
921.108 -2533.12 0 924.875 -2542.65 0 2250.63 -2533.09 0 
3117.18 -2533.06 0 5105.99 -2535.41 0 5109.88 -2533.01 0 
-2479.22 -2517.38 0 -2479.71 -2516.22 0 319.575 -2516.14 0 
914.388 -2516.12 0 2254.04 -2516.09 0 3120.59 -2516.06 0 
5137.4 -2516.01 0 -2486.93 -2499.21 0 323.046 -2499.14 0 
907.667 -2499.12 0 2256.91 -2501.8 0 2257.46 -2499.09 0 
[...]
POINT_DATA 18614
SCALARS Pressure double
LOOKUP_TABLE default
3.0886313009 3.0886313009 3.0886313009 3.0886313009 3.0886313009 3.0886313009 3.0886313009 3.0886313009 3.0886313009 
3.0886313009 3.0886313009 3.0886313009 3.0886313009 3.0886313009 3.0886313009 3.0886313009 3.0886313009 3.0886313009 
3.0886313009 3.0886313009 3.0886313009 3.0886313009 3.0886313009 3.0886313009 3.0886313009 3.0886313009 3.0886313009 
3.0886313009 3.0886313009 3.0886313009 3.0886313009 3.0886313009 3.0886313009 3.0886313009 3.0886313009 3.0886313009 
3.0886313009 3.0886313009 3.0886313009 3.0886313009 3.0886313009 3.0886313009 3.0886313009 3.0886313009 3.0886313009 
3.0886313009 3.0886313009 3.0886313009 3.0886313009 3.0886313009 3.0886313009 3.0886313009 3.0886313009 3.0886313009 
3.0886313009 3.0886313009 3.0886313009 3.0886313009 3.0886313009 3.0886313009 3.0886313009 3.0886313009 3.0886313009 
3.0886313009 3.0886313009 3.0886313009 3.0886313009 3.0886313009 3.0886313009 3.0886313009 3.0886313009 3.0886313009 
3.0886313009 3.0886313009 3.0886313009 3.0886313009 3.0886313009 3.0886313009 3.0886313009 3.0886313009 3.0886313009 
3.0886313009 3.0886313009 3.0886313009 3.0886313009 3.0886313009 3.0886313009 3.0886313009 3.0886313009 3.0886313009 
3.0886313009 3.0886313009 3.0886313009 3.0886313009 3.0886313009 3.0886313009 3.0886313009 3.0886313009 3.0886313009 
3.0886313009 3.0886313009 3.0886313009 3.0886313009 3.0886313009 3.0886313009 3.0886313009 3.0886313009 3.0886313009 
3.0886313009 3.0886313009 3.0886313009 3.0886313009 3.0886313009 3.0886313009 3.0886313009 3.0886313009 3.0886313009 
3.0886313009 3.0886313009 3.0886313009 3.0886313009 3.0886313009 3.0886313009 3.0886313009 3.0886313009 3.0886313009 
3.0886313009 3.0886313009 3.0886313009 3.0886313009 3.0886313009 3.0886313009 3.0886313009 3.0886313009 3.0886313009 
3.0886313009 3.0886313009 3.0886313009 3.0886313009 3.0886313009 3.0886313009 3.0886313009 3.0886313009 3.0886313009 
3.0886313009 3.0886313009 3.0886313009 3.0886313009 3.0886313009 3.0886313009 3.0886313009 3.0886313009 3.0886313009 
3.0886313009 3.0886313009 3.0886313009 3.0886313009 3.0886313009 3.0886313009 3.0886313009 3.0886313009 3.0886313009 
3.0886313009 3.0886313009 3.0886313009 3.0886313009 3.0886313009 3.0886313009 3.0886313009 3.0886313009 3.0886313009 
3.0886313009 3.0886313009 3.0886313009 3.0886313009 3.0886313009 3.0886313009 3.0886313009 3.0886313009 3.0886313009 
3.0886313009 3.0886313009 3.0886313009 3.0886313009 3.0886313009 3.0886313009 3.0886313009 3.0886313009 3.0886313009 
3.0886313009 3.0886313009 3.0886313009 3.0886313009 3.0886313009 3.0886313009 3.0886313009 3.0886313009 3.0886313009 
3.0886313009 3.0886313009 3.0886313009 3.0886313009 3.0886313009 3.0886313009 3.0886313009 3.0886313009 3.0886313009 
3.0886313009 3.0886313009 3.0886313009 3.0886313009 3.0886313009 3.0886313009 3.0886313009 3.0886313009 3.0886313009 
3.0886313009 3.0886313009 3.0886313009 3.0886313009 3.0886313009 3.0886313009 3.0886313009 3.0886313009 3.0886313009 
3.0886313009 3.0886313009 3.0886313009 3.0886313009 3.0886313009 3.0886313009 3.0886313009 3.0886313009 3.0886313009 
3.0886313009 3.0886313009 3.0886313009 3.0886313009 3.0886313009 3.0886313009 3.0886313009 3.0886313009 3.0886313009 
3.0886313009 3.0886313009 3.0886313009 3.0886313009 3.0886313009 3.0886313009 3.0886313009 3.0886313009 3.0886313009 
3.0886313009 3.0886313009 3.0886313009 3.0886313009 3.0886313009 3.0886313009 3.0886313009 3.0886313009 3.0886313009 
3.0886313009 3.0886313009 3.0886313009 3.0886313009 3.0886313009 3.0886313009 3.0886313009 3.0886313009 3.0886313009 
3.0886313009 3.0886313009 3.0886313009 3.0886313009 3.0886313009 3.0886313009 3.0886313009 3.0886313009 3.0886313009 
3.0886313009 3.0886313009 3.0886313009 3.0886313009 3.0886313009 3.0886313009 3.0886313009 3.0886313009 3.0886313009 
3.0886313009 3.0886313009 3.0886313009 3.0886313009 3.0886313009 3.0886313009 3.0886313009 3.0886313009 3.0886313009 
3.0886313009 3.0886313009 3.0886313009 3.0886313009 3.0886313009 3.0886313009 3.0886313009 3.0886313009 3.0886313009 
3.0886313009 3.0886313009 3.0886313009 3.0886313009 3.0886313009 3.0886313009 3.0886313009 3.0886313009 3.0886313009 
3.0886313009 3.0886313009 3.0944677622 3.0944677622 3.0944677622 3.0944677622 3.0886313009 3.0886313009 3.0886313009 
3.0886313009 3.0886313009 3.0944677622 3.0944677622 3.0944677622 3.0944677622 3.0944677622 3.0944677622 3.0886313009 
3.0886313009 3.0886313009 3.0886313009 3.0944677622 3.0944677622 3.0944677622 3.0944677622 3.0944677622 3.0944677622 
3.0886313009 3.0886313009 3.0886313009 3.0886313009 3.0886313009 3.0886313009 3.0944677622 3.0944677622 3.0944677622 
3.0944677622 3.0944677622 3.0944677622 3.0944677622 3.0886313009 3.0886313009 3.0886313009 3.0886313009 3.0886313009 
3.0944677622 3.0944677622 3.0944677622 3.0944677622 3.0944677622 3.0944677622 3.0944677622 3.0886313009 3.0886313009 
3.0886313009 3.0886313009 3.0944677622 3.0944677622 3.0944677622 3.0944677622 3.0944677622 3.0886313009 3.0886313009 
3.0886313009 3.0886313009 3.0886313009 3.0886313009 3.0886313009 3.0944677622 3.0944677622 3.0944677622 3.0944677622 
3.0886313009 3.0886313009 3.0886313009 3.0886313009 3.0944677622 3.0944677622 3.0944677622 3.0886313009 3.0886313009 
3.0886313009 3.0886313009 3.0944677622 3.0944677622 3.0944677622 3.0886313009 3.0886313009 3.0886313009 3.0886313009 
3.0886313009 3.0944677622 3.0944677622 3.0944677622 3.0944677622 3.0886313009 3.0886313009 3.0886313009 3.0886313009 
3.0944677622 3.0944677622 3.0944677622 3.0886313009 3.0886313009 3.0886313009 3.0886313009 3.0886313009 3.0944677622 
3.0944677622 3.0944677622 3.0886313009 3.0886313009 3.0886313009 3.0886313009 3.0886313009 3.0944677622 3.0944677622 
3.0944677622 3.0944677622 3.0886313009 3.0886313009 3.0886313009 3.0886313009 3.0944677622 3.0944677622 3.0886313009 
3.0886313009 3.0886313009 3.0886313009 3.0944677622 3.0944677622 3.0944677622 3.0886313009 3.0886313009 3.0886313009 
3.0886313009 3.0886313009 3.0886313009 3.0944677622 3.0944677622 3.0944677622 3.0886313009 3.0886313009 3.0886313009 
3.0886313009 3.0886313009 3.0944677622 3.0944677622 3.0886313009 3.0886313009 3.0886313009 3.0886313009 3.0886313009 
3.0944677622 3.0944677622 3.0886313009 3.0886313009 3.0886313009 3.0886313009 3.0944677622 3.0944677622 3.0886313009 
3.0886313009 3.0886313009 3.0886313009 3.0886313009 3.0886313009 3.0944677622 3.0944677622 3.0886313009 3.0886313009 
3.0886313009 3.0886313009 3.0886313009 3.0944677622 3.0944677622 3.0944677622 3.0886313009 3.0886313009 3.0886313009 
3.0886313009 3.0886313009 3.0886313009 3.0944677622 3.0944677622 3.0886313009 3.0886313009 3.0886313009 3.0886313009 
3.0944677622 3.0944677622 3.0944677622 3.0886313009 3.0886313009 3.0886313009 3.0886313009 3.0886313009 3.0944677622 
3.0944677622 3.0886313009 3.0886313009 3.0886313009 3.0886313009 3.0886313009 3.0944677622 3.0944677622 3.0886313009 
3.0886313009 3.0886313009 3.0886313009 3.0886313009 3.0886313009 3.0944677622 3.0944677622 3.0944677622 3.0886313009 
3.0886313009 3.0886313009 3.0886313009 3.0944677622 3.0944677622 3.0886313009 3.0886313009 3.0886313009 3.0886313009 
3.0886313009 3.0886313009 3.0886313009 3.0944677622 3.0944677622 3.0886313009 3.0886313009 3.0886313009 3.0886313009 
3.0886313009 3.0944677622 3.0944677622 3.0886313009 3.0886313009 3.0886313009 3.0886313009 3.0886313009 3.0944677622 
3.0944677622 3.0886313009 3.0886313009 3.0886313009 3.0886313009 3.0944677622 3.0944677622 3.0886313009 3.0886313009 
3.0886313009 3.0886313009 3.0886313009 3.0944677622 3.0944677622 3.0944677622 3.0886313009 3.0886313009 3.0886313009 
3.0886313009 3.0886313009 3.0886313009 3.0944677622 3.0944677622 3.0886313009 3.0886313009 3.0886313009 3.0886313009 
3.0886313009 3.0886313009 3.0944677622 3.0944677622 3.0944677622 3.0886313009 3.0886313009 3.0886313009 3.0886313009 
3.0944677622 3.0944677622 3.0886313009 3.0886313009 3.0886313009 3.0886313009 3.0886313009 3.0944677622 3.0944677622 
3.0886313009 3.0886313009 3.0886313009 3.0886313009 3.0886313009 3.0886313009 3.0944677622 3.0944677622 3.0944677622 
3.0886313009 3.0886313009 3.0886313009 3.0886313009 3.0886313009 3.0944677622 3.0944677622 3.0886313009 3.0886313009 
3.0886313009 3.0886313009 3.0944677622 3.0944677622 3.0886313009 3.0886313009 3.0886313009 3.0886313009 3.0886313009 
3.0944677622 3.0944677622 3.0944677622 3.0886313009 3.0886313009 3.0886313009 3.0886313009 3.0886313009 3.0944677622 
3.0944677622 3.0886313009 3.0886313009 3.0886313009 3.0886313009 3.0944677622 3.0944677622 3.0886313009 3.0886313009 
3.0886313009 3.0886313009 3.0886313009 3.0944677622 3.0944677622 3.0944677622 3.0944677622 3.0886313009 3.0886313009 
3.0886313009 3.0886313009 3.0886313009 3.0886313009 3.0944677622 3.0944677622 3.0886313009 3.0886313009 3.0886313009 
3.0886313009 3.0944677622 3.0944677622 3.0886313009 3.0886313009 3.0886313009 3.0886313009 3.0944677622 3.1003042234 
3.1003042234 3.1003042234 3.1003042234 3.1003042234 3.1003042234 3.1003042234 3.0944677622 3.0944677622 3.0886313009 
3.0886313009 3.0886313009 3.0886313009 3.0886313009 3.0886313009 3.0944677622 3.1003042234 3.1003042234 3.1003042234 
3.1003042234 3.1003042234 3.1003042234 3.0944677622 3.0886313009 3.0886313009 3.0886313009 3.0886313009 3.0944677622 
3.1003042234 3.1003042234 3.1003042234 3.1003042234 3.1003042234 3.0944677622 3.0886313009 3.0886313009 3.0886313009 
3.0827948397 3.0827948397 3.0827948397 3.0827948397 3.0886313009 3.0944677622 3.1003042234 3.1003042234 3.1003042234 
3.1003042234 3.1003042234 3.1003042234 3.0944677622 3.0944677622 3.0886313009 3.0886313009 3.0886313009 3.0886313009 
3.0886313009 3.0827948397 3.0827948397 3.0827948397 3.0827948397 3.0827948397 3.0827948397 3.0886313009 3.0944677622 
3.1003042234 3.1003042234 3.1003042234 3.0944677622 3.0886313009 3.0886313009 3.0886313009 3.0827948397 3.0827948397 
3.0827948397 3.0827948397 3.0827948397 3.0827948397 3.0886313009 3.0944677622 3.1003042234 3.1003042234 3.1003042234 
3.0944677622 3.0886313009 3.0886313009 3.0886313009 3.0827948397 3.0827948397 3.0827948397 3.0827948397 3.0827948397 
3.0827948397 3.0886313009 3.0944677622 3.1003042234 3.1003042234 3.1003042234 3.1003042234 3.0944677622 3.0886313009 
3.0886313009 3.0886313009 3.0886313009 3.0886313009 3.0827948397 3.0827948397 3.0827948397 3.0827948397 3.0827948397 
3.0886313009 3.0944677622 3.1003042234 3.1003042234 3.1003042234 3.0944677622 3.0886313009 3.0886313009 3.0886313009 
3.0886313009 3.0827948397 3.0827948397 3.0827948397 3.0827948397 3.0886313009 3.0944677622 3.1003042234 3.1003042234 
3.1003042234 3.0944677622 3.0886313009 3.0886313009 3.0886313009 3.0886313009 3.0827948397 3.0827948397 3.0827948397 
3.0886313009 3.0944677622 3.0944677622 3.1003042234 3.1003042234 3.1003042234 3.0944677622 3.0886313009 3.0886313009 
3.0886313009 3.0886313009 3.0827948397 3.0827948397 3.0827948397 3.0827948397 3.0886313009 3.0944677622 3.1003042234 
3.1003042234 3.1003042234 3.0944677622 3.0886313009 3.0886313009 3.0886313009 3.0827948397 3.0827948397 3.0827948397 
3.0886313009 3.0944677622 3.1003042234 3.1003042234 3.0944677622 3.0886313009 3.0886313009 3.0886313009 3.0886313009 
3.0827948397 3.0827948397 3.0827948397 3.0886313009 3.0944677622 3.1003042234 3.1003042234 3.1003042234 3.1003042234 
3.0944677622 3.0886313009 3.0886313009 3.0886313009 3.0886313009 3.0827948397 3.0827948397 3.0886313009 3.0944677622 
3.1003042234 3.1003042234 3.0944677622 3.0886313009 3.0886313009 3.0886313009 3.0827948397 3.0827948397 3.0827948397 
3.0886313009 3.0944677622 3.1003042234 3.1003042234 3.0944677622 3.0886313009 3.0886313009 3.0886313009 3.0886313009 
3.0886313009 3.0827948397 3.0827948397 3.0827948397 3.0886313009 3.0944677622 3.1003042234 3.1003042234 3.0944677622 
3.0886313009 3.0886313009 3.0886313009 3.0886313009 3.0827948397 3.0827948397 3.0886313009 3.0944677622 3.1003042234 
3.1003042234 3.1003042234 3.1003042234 3.0944677622 3.0886313009 3.0886313009 3.0886313009 3.0886313009 3.0827948397 
3.0827948397 3.0827948397 3.0886313009 3.0944677622 3.1003042234 3.1003042234 3.0944677622 3.0886313009 3.0886313009 
3.0886313009 3.0886313009 3.0827948397 3.0827948397 3.0827948397 3.0886313009 3.0944677622 3.1003042234 3.1003042234 
3.0944677622 3.0886313009 3.0886313009 3.0886313009 3.0886313009 3.0827948397 3.0827948397 3.0886313009 3.0944677622 
3.1003042234 3.1003042234 3.0944677622 3.0886313009 3.0886313009 3.0886313009 3.0827948397 3.0827948397 3.0827948397 
3.0886313009 3.0944677622 3.1003042234 3.1003042234 3.1003042234 3.1003042234 3.0944677622 3.0886313009 3.0886313009 
3.0886313009 3.0886313009 3.0886313009 3.0827948397 3.0827948397 3.0886313009 3.0944677622 3.1003042234 3.1003042234 
3.0944677622 3.0886313009 3.0886313009 3.0886313009 3.0886313009 3.0827948397 3.0827948397 3.0827948397 3.0827948397 
3.0886313009 3.0944677622 3.1003042234 3.1003042234 3.0944677622 3.0886313009 3.0886313009 3.0886313009 3.0827948397 
3.0827948397 3.0886313009 3.0944677622 3.0944677622 3.1003042234 3.1003042234 3.0944677622 3.0886313009 3.0886313009 
3.0886313009 3.0886313009 3.0827948397 3.0827948397 3.0886313009 3.0944677622 3.1003042234 3.1003042234 3.1003042234 
3.0944677622 3.0886313009 3.0886313009 3.0886313009 3.0886313009 3.0827948397 3.0827948397 3.0827948397 3.0827948397 
3.0886313009 3.0944677622 3.1003042234 3.1003042234 3.0944677622 3.0886313009 3.0886313009 3.0886313009 3.0827948397 
3.0827948397 3.0886313009 3.0944677622 3.1003042234 3.1003042234 3.1003042234 3.0944677622 3.0886313009 3.0886313009 
3.0886313009 3.0886313009 3.0886313009 3.0827948397 3.0827948397 3.0827948397 3.0886313009 3.0886313009 3.0944677622 
3.1003042234 3.1061406847 3.1061406847 3.1061406847 3.1061406847 3.1061406847 3.1061406847 3.1061406847 3.1061406847 
3.1061406847 3.1061406847 3.1061406847 3.1061406847 3.1061406847 3.1003042234 3.0944677622 3.0886313009 3.0886313009 
3.0886313009 3.0886313009 3.0827948397 3.0827948397 3.0886313009 3.0944677622 3.1003042234 3.1061406847 3.1061406847 
3.1003042234 3.0944677622 3.0886313009 3.0886313009 3.0886313009 3.0827948397 3.0827948397 3.0827948397 3.0886313009 
3.0944677622 3.1003042234 3.1061406847 3.1061406847 3.1061406847 3.1061406847 3.1003042234 3.1003042234 3.0944677622 
3.0886313009 3.0886313009 3.0886313009 3.0886313009 3.0886313009 3.0827948397 3.0827948397 3.0827948397 3.0886313009 
3.0944677622 3.1003042234 3.1061406847 3.1061406847 3.1003042234 3.0944677622 3.0886313009 3.0886313009 3.0886313009 
3.0827948397 3.0827948397 3.0886313009 3.0944677622 3.1003042234 3.1061406847 3.1061406847 3.1061406847 3.1061406847 
3.1003042234 3.0944677622 3.0886313009 3.0886313009 3.0886313009 3.0886313009 3.0827948397 3.0827948397 3.0827948397 
3.0886313009 3.0944677622 3.0944677622 3.1003042234 3.1003042234 3.1061406847 3.1061406847 3.1003042234 3.0944677622 
3.0886313009 3.0886313009 3.0886313009 3.0886313009 3.0827948397 3.0827948397 3.0827948397 3.0886313009 3.0944677622 
3.1003042234 3.1061406847 3.1061406847 3.1061406847 3.1061406847 3.1003042234 3.0944677622 3.0886313009 3.0886313009 
3.0886313009 3.0886313009 3.0827948397 3.0827948397 3.0886313009 3.0944677622 3.1003042234 3.1061406847 3.1061406847 
3.1003042234 3.0944677622 3.0886313009 3.0886313009 3.0886313009 3.0886313009 3.0827948397 3.0827948397 3.0827948397 
3.0886313009 3.0944677622 3.1003042234 3.1061406847 3.1061406847 3.1061406847 3.1061406847 3.1003042234 3.0944677622 
3.0886313009 3.0886313009 3.0886313009 3.0886313009 3.0827948397 3.0827948397 3.0886313009 3.0886313009 3.0944677622 
3.1003042234 3.1003042234 3.1061406847 3.1061406847 3.1003042234 3.0944677622 3.0886313009 3.0886313009 3.0886313009 
3.0827948397 3.0827948397 3.0827948397 3.0886313009 3.0944677622 3.1003042234 3.1061406847 3.1061406847 3.1061406847 
3.1003042234 3.1003042234 3.0944677622 3.0886313009 3.0886313009 3.0886313009 3.0886313009 3.0886313009 3.0827948397 
3.0827948397 3.0827948397 3.0886313009 3.0944677622 3.1003042234 3.1061406847 3.1061406847 3.1003042234 3.0944677622 
3.0886313009 3.0886313009 3.0886313009 3.0886313009 3.0827948397 3.0827948397 3.0886313009 3.0944677622 3.1003042234 
3.1061406847 3.1061406847 3.1061406847 3.1061406847 3.1003042234 3.0944677622 3.0886313009 3.0886313009 3.0886313009 
3.0827948397 3.0827948397 3.0886313009 3.0944677622 3.1003042234 3.1061406847 3.1061406847 3.1003042234 3.0944677622 
3.0886313009 3.0886313009 3.0886313009 3.0886313009 3.0827948397 3.0827948397 3.0886313009 3.0944677622 3.0944677622 
3.1003042234 3.1003042234 3.1061406847 3.1061406847 3.1061406847 3.1003042234 3.0944677622 3.0886313009 3.0886313009 
3.0886313009 3.0886313009 3.0827948397 3.0827948397 3.0827948397 3.0827948397 3.0886313009 3.0944677622 3.1003042234 
3.1061406847 3.1061406847 3.1061406847 3.1003042234 3.0944677622 3.0886313009 3.0886313009 3.0886313009 3.0886313009 
3.0827948397 3.0827948397 3.0886313009 3.0944677622 3.1003042234 3.1061406847 3.1061406847 3.1003042234 3.0944677622 
3.0886313009 3.0886313009 3.0886313009 3.0886313009 3.0827948397 3.0827948397 3.0886313009 3.0944677622 3.1003042234 
3.1061406847 3.1061406847 3.1003042234 3.0944677622 3.0886313009 3.0886313009 3.0886313009 3.0886313009 3.0827948397 
3.0769583784 3.0769583784 3.0769583784 3.0769583784 3.0769583784 3.0769583784 3.0769583784 3.0827948397 3.0886313009 
3.0944677622 3.1003042234 3.1061406847 3.1061406847 3.1119771459 3.1119771459 3.1119771459 3.1119771459 3.1119771459 
3.1119771459 3.1061406847 3.1061406847 3.1003042234 3.0944677622 3.0886313009 3.0886313009 3.0886313009 3.0886313009 
3.0827948397 3.0769583784 3.0769583784 3.0769583784 3.0769583784 3.0769583784 3.0769583784 3.0769583784 3.0769583784 
3.0769583784 3.0769583784 3.0769583784 3.0769583784 3.0827948397 3.0886313009 3.0944677622 3.1003042234 3.1003042234 
3.1061406847 3.1119771459 3.1119771459 3.1119771459 3.1119771459 3.1061406847 3.1003042234 3.0944677622 3.0886313009 
3.0886313009 3.0886313009 3.0886313009 3.0827948397 3.0769583784 3.0769583784 3.0769583784 3.0769583784 3.0769583784 
3.0827948397 3.0886313009 3.0944677622 3.1003042234 3.1061406847 3.1119771459 3.1119771459 3.1119771459 3.1061406847 
3.1003042234 3.0944677622 3.0886313009 3.0886313009 3.0886313009 3.0827948397 3.0769583784 3.0769583784 3.0769583784 
3.0827948397 3.0886313009 3.0944677622 3.1003042234 3.1061406847 3.1061406847 3.1119771459 3.1119771459 3.1119771459 
3.1119771459 3.1119771459 3.1061406847 3.1003042234 3.0944677622 3.0886313009 3.0886313009 3.0886313009 3.0827948397 
3.0769583784 3.0769583784 3.0827948397 3.0886313009 3.0944677622 3.0944677622 3.1003042234 3.1061406847 3.1119771459 
3.1119771459 3.1119771459 3.1061406847 3.1003042234 3.0944677622 3.0886313009 3.0886313009 3.0886313009 3.0886313009 
3.0827948397 3.0827948397 3.0769583784 3.0769583784 3.0769583784 3.0827948397 3.0886313009 3.0944677622 3.1003042234 
3.1003042234 3.1061406847 3.1119771459 3.1119771459 3.1119771459 3.1061406847 3.1003042234 3.0944677622 3.0886313009 
3.0886313009 3.0886313009 3.0827948397 3.0769583784 3.0769583784 3.0769583784 3.0827948397 3.0886313009 3.0944677622 
3.1003042234 3.1061406847 3.1061406847 3.1119771459 3.1119771459 3.1119771459 3.1061406847 3.1061406847 3.1003042234 
3.1003042234 3.0944677622 3.0886313009 3.0886313009 3.0886313009 3.0886313009 3.0827948397 3.0769583784 3.0769583784 
3.0769583784 3.0827948397 3.0886313009 3.0944677622 3.1003042234 3.1061406847 3.1119771459 3.1119771459 3.1119771459 
3.1119771459 3.1061406847 3.1003042234 3.0944677622 3.0886313009 3.0886313009 3.0886313009 3.0827948397 3.0769583784 
3.0769583784 3.0827948397 3.0886313009 3.0944677622 3.1003042234 3.1061406847 3.1119771459 3.1119771459 3.1061406847 
3.1003042234 3.0944677622 3.0886313009 3.0827948397 3.0827948397 3.0827948397 3.0886313009 3.0886313009 3.0827948397 
3.0769583784 3.0769583784 3.0769583784 3.0827948397 3.0886313009 3.0944677622 3.1003042234 3.1003042234 3.1061406847 