# vtk DataFile Version 4.2
vtk output
ASCII
DATASET UNSTRUCTURED_GRID
POINTS 1740 double
2144.07 -94.44003 0 2911 0 0 16.54298 -37.82236 0 
5.09149 -21.30132 0 1.27433 -10.75385 0 0 0 0 
2.54575 15.14293 0 6.36291 23.76126 0 14.00014 34.89063 0 
30.50239 50.70793 0 33.39435 -52.93479 0 2050.91 -103.7862 0 
60.1465 -69.72165 0 88.83633 -83.2817 0 118.7656 -94.71113 0 
153.4168 -105.7022 0 199.5806 -117.771 0 261.4466 -130.7139 0 
345.846 -144.1892 0 460.3522 -157.0592 0 608.4185 -167.1903 0 
783.2313 -172.4016 0 941.0559 -172.4533 0 1063.409 -170.1096 0 
1164.153 -166.8746 0 1263.449 -162.682 0 1375.468 -156.8941 0 
1513.293 -148.414 0 1665.281 -137.5317 0 1791.864 -127.3721 0 
2195.451 -89.09491 0 2273.924 -80.67077 0 2383.731 -68.3513 0 
2517.64 -52.47337 0 2649.227 -35.9232 0 2740.773 -23.82991 0 
2804.387 -15.13419 0 2848.802 -8.916218 0 2881.944 -4.196067 0 
56.61447 67.79801 0 84.09687 81.25172 0 112.4783 92.48395 0 
142.1748 102.3504 0 174.8563 111.6168 0 213.124 120.8806 0 
260.3759 130.5151 0 324.6539 141.1779 0 418.1422 152.9178 0 
535.6656 162.9871 0 690.9154 170.4255 0 902.6513 172.7852 0 
1100.32 169.0517 0 1270.99 162.3262 0 1462.794 151.6837 0 
1631.287 140.0952 0 1747.993 131 0 1922.788 115.9027 0 
2069.56 101.951 0 2128.804 96.0021 0 2297.147 78.11721 0 
2414.379 64.80104 0 2554.023 47.99319 0 2673.693 32.73885 0 
2757.97 21.50315 0 2814.297 13.7575 0 2852.02 8.460961 0 
2882.272 4.148909 0 1791.052 127.4402 0 1366.894 157.3738 0 
1444.38 -152.8302 0 1547.039 146.1296 0 1589.287 -143.1614 0 
1878.731 119.8675 0 1997.072 108.9828 0 1185.654 166.0472 0 
1882.536 -119.5292 0 1971.323 -111.4145 0 1684.777 136.0292 0 
2099.317 -98.9855 0 2234.809 84.9091 0 2181.695 90.53914 0 
1728.573 -132.5703 0 1718.815 133.3509 0 1834.825 123.7132 0 
1960.305 112.4444 0 2033.69 105.4648 0 2099.184 98.99892 0 
2214.291 -73.686160111 396.8421 2955.512 16.864686034 396.8421 158.0786 -29.503729197 396.8421 
147.0109 -13.681568761 396.8421 143.3217 -3.558655913 396.8421 142.09 6.7784162203 396.8421 
144.5505 21.361010274 396.8421 148.2398 29.674843013 396.8421 155.621 40.427468963 396.8421 
171.5701 55.743528103 396.8421 174.3652 -43.937044465 396.8421 2124.254 -82.847072234 396.8421 
200.2206 -59.918937861 396.8421 227.9488 -72.78375756 396.8421 256.8748 -83.590554267 396.8421 
290.3647 -93.945392795 396.8421 334.981 -105.26373013 396.8421 394.7733 -117.32338928 396.8421 
476.3434 -129.75352784 396.8421 587.0114 -141.41650918 396.8421 730.1145 -150.25007324 396.8421 
899.0676 -154.21971986 396.8421 1051.602 -153.36887309 396.8421 1169.853 -150.44929988 396.8421 
1267.221 -146.81461766 396.8421 1363.188 -142.29065057 396.8421 1471.452 -136.20063467 396.8421 
1604.657 -127.45104909 396.8421 1751.55 -116.40061924 396.8421 1873.891 -106.20478948 396.8421 
2263.949 -68.467515687 396.8421 2339.792 -60.270693116 396.8421 2445.918 -48.340700337 396.8421 
2575.338 -33.055102107 396.8421 2702.515 -17.2190658 396.8421 2790.992 -5.7036829261 396.8421 
2852.473 2.5496866415 396.8421 2895.4 8.4384018479 396.8421 2927.431 12.901735341 396.8421 
196.807 72.342391989 396.8421 223.3682 85.451623732 396.8421 250.7983 96.429657689 396.8421 
279.4994 106.10216988 396.8421 311.0855 115.21619629 396.8421 348.0705 124.3624665 396.8421 
393.7383 133.92139493 396.8421 455.8617 144.57551364 396.8421 546.2162 156.44759092 396.8421 
659.8003 166.86135742 396.8421 809.846 174.97126691 396.8421 1014.485 178.51178608 396.8421 
1205.528 176.05027781 396.8421 1370.477 170.49292538 396.8421 1555.851 161.18904861 396.8421 
1718.696 150.76374752 396.8421 1831.49 142.45277856 396.8421 2000.426 128.47802383 396.8421 
2142.278 115.40609397 396.8421 2199.537 109.79320709 396.8421 2362.236 92.794664275 396.8421 
2475.539 80.030060824 396.8421 2610.501 63.801772227 396.8421 2726.16 48.972278 396.8421 
2807.613 37.993810464 396.8421 2862.05 30.400030426 396.8421 2898.509 25.196012113 396.8421 
2927.749 20.952752658 396.8421 1873.106 139.17599204 396.8421 1463.165 166.20926333 396.8421 
1538.054 -131.98807696 396.8421 1637.272 156.21988621 396.8421 1678.104 -122.09747303 396.8421 
1957.846 132.16682295 396.8421 2072.22 122.01149964 396.8421 1288 173.62467212 396.8421 
1961.524 -98.394936882 396.8421 2047.334 -90.361129146 396.8421 1770.393 147.06007752 396.8421 
2171.038 -78.135678246 396.8421 2301.989 99.270713105 396.8421 2250.655 104.61999801 396.8421 
1812.721 -111.40918305 396.8421 1803.29 144.60976946 396.8421 1915.411 135.73250949 396.8421 
2036.686 125.25056966 396.8421 2107.61 118.7109288 396.8421 2170.909 112.62352912 396.8421 
2284.511 -54.993013755 793.6842 3000.027 31.891228992 793.6842 299.6143 -20.120414633 793.6842 
288.9304 -4.9544735154 793.6842 285.3691 4.767050783 793.6842 284.1801 14.708019987 793.6842 
286.5551 28.754585751 793.6842 290.1167 36.775179603 793.6842 297.2417 47.162561138 793.6842 
312.6379 61.987486099 793.6842 315.336 -33.921355577 793.6842 2197.597 -63.916518293 793.6842 
340.2947 -49.160631881 793.6842 367.0612 -61.390349405 793.6842 394.9839 -71.633535817 793.6842 
427.3123 -81.417801585 793.6842 470.3812 -92.070740291 793.6842 528.0998 -103.3586929 793.6842 
606.8411 -114.89368574 793.6842 713.6708 -125.55159607 793.6842 851.8104 -133.34685537 793.6842 
1014.904 -136.37732652 793.6842 1162.147 -134.89118267 793.6842 1276.298 -131.5967773 793.6842 
1370.288 -127.72272574 793.6842 1462.927 -123.01963104 793.6842 1567.436 -116.79159571 793.6842 
1696.021 -107.96040687 793.6842 1837.82 -96.92846467 793.6842 1955.917 -86.832542276 793.6842 
2332.447 -49.923434598 793.6842 2405.659 -41.979451441 793.6842 2508.105 -30.455428231 793.6842 
2633.037 -15.749581649 793.6842 2755.801 -0.57734841591 793.6842 2841.209 10.418955551 793.6842 
2900.561 18.282998497 793.6842 2941.997 23.885665591 793.6842 2972.917 28.127777875 793.6842 
336.9995 78.096333057 793.6842 362.6396 90.853544989 793.6842 389.1182 101.56389178 793.6842 
416.8239 111.02409932 793.6842 447.3145 119.96147672 793.6842 483.0167 128.95736223 793.6842 
527.1009 138.3945679 793.6842 587.0697 148.96901396 793.6842 674.2905 160.8559663 793.6842 
783.9349 171.44730441 793.6842 928.7766 179.98212921 793.6842 1126.317 184.33487834 793.6842 
1310.735 182.78385366 793.6842 1469.963 178.08118522 793.6842 1648.908 169.77466184 793.6842 
1806.105 160.23297015 793.6842 1914.987 152.52802356 793.6842 2078.064 139.43997844 793.6842 
2214.996 127.08446282 793.6842 2270.269 121.75185361 793.6842 2427.326 105.51752137 793.6842 
2536.699 93.254189441 793.6842 2666.98 77.586953556 793.6842 2778.628 63.205278222 793.6842 
2857.255 52.523210766 793.6842 2909.806 45.118616429 793.6842 2945.001 40.037277775 793.6842 
2973.224 35.890061136 793.6842 1955.16 149.47235026 793.6842 1559.437 174.29337337 793.6842 
1631.729 -112.52630107 793.6842 1727.505 165.24772699 793.6842 1766.921 -102.60210238 793.6842 
2036.96 142.90820607 793.6842 2147.368 133.33968937 793.6842 1390.347 180.7798879 793.6842 
2040.511 -79.14096178 793.6842 2123.346 -71.260869604 793.6842 1856.009 156.80808035 793.6842 
2242.759 -59.323216382 793.6842 2369.167 111.71639843 793.6842 2319.614 116.82402841 793.6842 
1896.869 -91.977518327 793.6842 1887.765 154.53433644 793.6842 1995.998 146.25204712 793.6842 
2113.066 136.39844108 793.6842 2181.531 130.21697665 793.6842 2242.634 124.44272818 793.6842 
2354.732 -38.043103394 1190.526 3044.539 45.28270572 1190.526 441.15 -10.040134414 1190.526 
430.8497 4.5038843163 1190.526 427.4164 13.842386379 1190.526 426.2701 23.403406933 1190.526 
428.5601 36.932448655 1190.526 431.9934 44.668028042 1190.526 438.8627 54.698193292 1190.526 
453.7057 69.037807082 1190.526 456.3069 -23.246825064 1190.526 2270.94 -46.687180273 1190.526 
480.3688 -37.794574931 1190.526 506.1737 -49.438581658 1190.526 533.0934 -59.166671021 1190.526 
564.26 -68.434279842 1190.526 605.7815 -78.491328343 1190.526 661.4265 -89.098140678 1190.526 
737.3385 -99.859087863 1190.526 840.33 -109.67295305 1190.526 973.5064 -116.63440363 1190.526 
1130.74 -118.96151794 1190.526 1272.693 -117.04581926 1190.526 1382.742 -113.53045743 1190.526 
1473.356 -109.53926135 1190.526 1562.666 -104.77278573 1190.526 1663.42 -98.530783812 1190.526 
1787.385 -89.760455651 1190.526 1924.09 -78.88850978 1190.526 2037.944 -68.996289572 1190.526 
2400.946 -33.141370561 1190.526 2471.527 -25.472717343 1190.526 2570.292 -14.372597586 1190.526 
2690.735 -0.24563023684 1190.526 2809.091 14.289857716 1190.526 2891.43 24.80239292 1190.526 
2948.647 32.310014425 1190.526 2988.597 37.653780738 1190.526 3018.403 41.697284549 1190.526 
477.1918 84.654595314 1190.526 501.9109 97.050889908 1190.526 527.4382 107.48017442 1190.526 
554.1485 116.71082341 1190.526 583.5435 125.44962251 1190.526 617.963 134.26652581 1190.526 
660.4633 143.54271289 1190.526 718.2775 153.97832375 1190.526 802.3645 165.7845231 1190.526 
908.0698 176.42002092 1190.526 1047.707 185.18641999 1190.526 1238.151 190.06725701 1190.526 
1415.942 189.15126354 1190.526 1569.449 185.06590302 1190.526 1741.965 177.49930612 1190.526 
1893.514 168.62976311 1190.526 1998.484 161.39571531 1190.526 2155.702 149.01401744 1190.526 
2287.714 137.24782685 1190.526 2341.001 132.15140272 1190.526 2492.415 116.58124169 1190.526 
2597.858 104.7737319 1190.526 2723.46 89.641955402 1190.526 2831.095 75.712986529 1190.526 
2906.899 65.346645112 1190.526 2957.56 58.151855143 1190.526 2991.49 53.210528681 1190.526 
3018.699 49.175342664 1190.526 2037.214 158.5141964 1190.526 1655.708 181.64353595 1190.526 
1725.403 -94.285486158 1190.526 1817.738 173.30673925 1190.526 1855.738 -84.47035336 1190.526 
2116.075 152.30447096 1190.526 2222.516 143.21262247 1190.526 1492.694 187.44978428 1190.526 
2119.498 -61.488450533 1190.526 2199.357 -53.818321522 1190.526 1941.625 165.42032005 1190.526 
2314.479 -42.235060018 1190.526 2436.346 122.53546406 1190.526 2388.573 127.43343854 1190.526 
1981.017 -74.031520332 1190.526 1972.24 163.2840321 1190.526 2076.584 155.47082474 1190.526 
[...]
POINT_DATA 1740
FIELD FieldData 1
Pressure 1 1740 double
3.1040863801 3.0182287965 3.0096026651 2.9858062297 2.979248009 2.9593243891 2.9720913449 2.9892807378 3.0204840548 
3.0345951376 3.011988056 3.1080595695 3.0343764087 3.0490028234 3.0662944467 3.0666841996 3.0835107046 3.0884217799 
3.1100744344 3.1148146313 3.1339002003 3.1425846806 3.1442609132 3.1505980166 3.144296056 3.1404289786 3.1364056669 
3.1321668355 3.125076239 3.119052438 3.1015190756 3.0981761971 3.0927647994 3.084749519 3.0740101264 3.0640504497 
3.0542654706 3.0456078615 3.0372511171 3.0704071672 3.0818406408 3.093953632 3.1066383624 3.1128037513 3.1193120738 
3.1264002684 3.1342400453 3.149706907 3.1621893947 3.1780188038 3.1883710502 3.1952700041 3.2009265073 3.2065044958 
3.2108373515 3.214270881 3.2150917245 3.1820480556 3.092405633 3.0856250591 3.0803120867 3.0716223963 3.0619848325 
3.0513238819 3.0408219416 3.0333107515 3.0312351273 3.2140852146 3.2043220166 3.1348926907 3.2083445072 3.1284278366 
3.2147294666 3.2160195676 3.2024092704 3.1154130259 3.1116164199 3.2123481401 3.1058769742 3.088030778 3.0870099595 
3.1216109472 3.2138897912 3.2140108685 3.2158158781 3.2197966826 3.0775516531 3.1010175461 3.0233936777 3.0278731477 
3.0011497146 3.0075617937 2.9860861156 2.9924089428 3.0041565523 3.033827881 3.0517844879 3.0368067346 3.1052194622 
3.0570401021 3.0697718514 3.0827980596 3.0867427888 3.1022882901 3.1117481459 3.1253266648 3.1301610233 3.1412675163 
3.1451953031 3.1487944617 3.1493404062 3.1435236084 3.138770627 3.1327765974 3.1283747071 3.1217237408 3.116127354 
3.0986622989 3.0945977412 3.0891300963 3.0810398511 3.0703513088 3.0604676714 3.0508238124 3.0433513304 3.0284595885 
3.0846884955 3.1056164436 3.1170575537 3.1258901867 3.1347609525 3.1400439549 3.1452238404 3.1547561631 3.1668316921 
3.1760775576 3.1846631816 3.1922390861 3.1989332271 3.2051969613 3.2081863452 3.2111063175 3.2146331832 3.2167072877 
3.0896609402 3.0984728645 3.0916889013 3.0854429886 3.0767411313 3.0657920218 3.0553983202 3.0452005071 3.0388218155 
3.0390321054 3.2150736189 3.2066806141 3.1314473422 3.2111255915 3.1246538936 3.2163562459 3.2170189809 3.2041498121 
3.1123347684 3.1085831697 3.2130032687 3.1031955259 3.0951485637 3.0983766677 3.1187926612 3.2138121838 3.2148668473 
3.2163114365 3.1989155276 3.0983394418 3.0985692311 3.0239734055 3.0278683768 3.0001016002 3.0009012729 2.9837514611 
2.9945052391 3.0087745812 3.03841664 3.0592398265 3.0455828851 3.1026969553 3.0604799106 3.0794885445 3.0973594506 
3.1032086115 3.1168563258 3.1249862697 3.1374631422 3.1432238881 3.1511623938 3.1535307246 3.1523810918 3.150274033 
3.1425497638 3.1364639522 3.1303087288 3.1251593858 3.1189406703 3.1137287265 3.0962672313 3.092358264 3.0867223606 
3.0789646947 3.0681641637 3.0582285367 3.0491879693 3.0421149181 3.0287706617 3.0917102121 3.1132613635 3.1305245662 
3.1404115653 3.1523579976 3.1602299454 3.1694863274 3.1739099456 3.1821623305 3.1919831536 3.196568016 3.2017632707 
3.2049591269 3.2116543924 3.2139230111 3.2147071704 3.2170723858 3.2194292212 3.0885592207 3.0932265013 3.0920359523 
3.0867654036 3.0788979694 3.0680049801 3.0579402037 3.0479440831 3.0407645961 3.0421397718 3.2177235408 3.2130758847 
3.128450972 3.2149535745 3.1217558065 3.2185385157 3.2175154139 3.2093066426 3.1099016116 3.1060993665 3.2154816977 
3.100811282 3.0941355829 3.0943791627 3.1161775315 3.2160523812 3.2180190504 3.2194038734 3.0860236305 3.0878050768 
3.0965951885 3.0245684692 3.0283330309 2.9997161795 3.0008658605 2.9821522783 2.9914023762 3.0062312515 3.0390491854 
3.0599085447 3.0460700879 3.1006788099 3.0662225454 3.084060343 3.1038756236 3.1119283523 3.1248488964 3.1321562455 
3.1453236212 3.1519069769 3.1584474166 3.1585887987 3.1555026614 3.150521089 3.1416914777 3.1352552785 3.128973426 
3.122995905 3.1168224439 3.1115326201 3.0941983265 3.0905303453 3.0851560588 3.0775241831 3.0670156158 3.0572219733 
3.0486306995 3.041621032 3.028866301 3.094792178 3.1182702301 3.1327581901 3.1449881909 3.1517131202 3.1630458886 
3.1753457348 3.183468497 3.1915220021 3.2025924491 3.2076590958 3.2119463255 3.2133350774 3.2196671126 3.2216251321 
3.2218502944 3.2231940023 3.2272834666 3.0959723345 3.0952673136 3.0931754388 3.0880566778 3.0799065395 3.0691642416 
3.0591542772 3.049356264 3.0418499021 3.0430750717 3.223287134 3.2206279835 3.1265709303 3.2223061685 3.1197928656 
3.223569149 3.0880100301 3.2169535416 3.1077909904 3.1039704945 3.2221620791 3.0987447172 3.0948755176 3.0953341953 
3.1140171424 3.222301022 3.2236122745 3.1878093982 3.0924966489 3.0963199716 3.0949543893 3.0241939042 3.0301130426 
2.9999655353 3.0037193122 2.985086785 2.9925971838 3.0068477759 3.0403712345 3.0606887144 3.0480618777 3.099062808 
3.069900258 3.0875139059 3.1051735062 3.1145387143 3.1276819226 3.1379061724 3.1484570528 3.1555303042 3.1625567352 
3.1613770686 3.1563157696 3.1491949188 3.1400713459 3.1333579239 3.1269537024 3.1210882515 3.1150602437 3.1096527229 
3.0927309859 3.0890111598 3.0838342552 3.076331019 3.0661296465 3.0565740183 3.0482266238 3.0411456007 3.0290430564 
3.0955523676 3.1194312425 3.1337910898 3.1466168791 3.1557604567 3.166911557 3.1778178148 3.1833162448 3.1941470637 
3.2070095569 3.2158329564 3.2194960133 3.2215174149 3.2271015314 3.2291627258 3.2288927595 3.2300127363 3.2353482211 
3.0950625478 3.0951262422 3.0920222915 3.0865862486 3.0783027401 3.067995081 3.0582602456 3.0485320736 3.0410602369 
3.0427533424 3.2302673809 3.2282998393 3.1247492733 3.229200823 3.1179459601 3.2300276016 3.0945459992 3.224806406 
3.1059392933 3.102210185 3.2292143932 3.0971248981 3.0939787442 3.0946234965 3.1122377418 3.2293965389 3.2307882719 
3.0926881766 3.094721829 3.0960751532 3.0935941872 3.0228326386 3.0311095621 3.0010739372 3.0042892878 2.9857607145 
2.9935827941 3.0078421864 3.0410115866 3.0617355048 3.0500802181 3.0975375694 3.0721421647 3.0904926327 3.1069508957 
3.1168016318 3.1300593388 3.1408718518 3.1523337929 3.1604288162 3.1660149912 3.1634765935 3.1564037211 3.147294022 
3.1383046747 3.1314773376 3.1251959705 3.119057241 3.1133144487 3.1079643445 3.0913393838 3.0876771375 3.0826391082 
3.0752639853 3.0652502816 3.055813577 3.0476270268 3.0404821484 3.0292697217 3.0960583309 3.1203458353 3.1348529152 
3.1477585262 3.1567655712 3.1685300128 3.1807264149 3.1873894276 3.1984878928 3.2113525445 3.2218029084 3.2271480482 
3.2294470432 3.2356158409 3.2369692391 3.2363095624 3.2369207509 3.1296329591 3.0911927193 3.0912123018 3.0882843949 
3.0830263093 3.0749275648 3.0651264995 3.0556374236 3.0462186072 3.0387993893 3.0406913999 3.2371763713 3.2362326524 
3.1227929646 3.2367107974 3.1161126666 3.2346351747 3.0882272148 3.2326899766 3.1043093318 3.1007119666 3.2361994457 
3.0956011643 3.0903204221 3.0904262957 3.1105550865 3.2363901864 3.2376365038 3.0899581844 3.090977905 3.091784646 
3.0924048523 3.0216440755 3.0310760699 3.0012050914 3.0029452939 2.985163282 2.9937039847 3.0079187465 3.0408686931 
3.0619796869 3.0513282991 3.096283239 3.073537227 3.0924077048 3.1086022928 3.1188164863 3.1321775958 3.1436565894 
3.154850703 3.1632310099 3.1688085517 3.1648772628 3.1557947511 3.1452182637 3.1367180688 3.1299028741 3.1237338328 
3.1174052231 3.1118673845 3.1066114876 3.090150378 3.0865476577 3.0816154604 3.0743481601 3.0644632188 3.0550712002 
3.0469826471 3.0397803406 3.029337452 3.0959547912 3.1205231452 3.1350851008 3.1481238778 3.1576512792 3.1693988815 
3.1815254018 3.1890412832 3.2005152757 3.21452513 3.225958675 3.2328998441 3.2367109829 3.2433242386 3.2451023841 
3.244596841 3.2445668501 3.1043092079 3.0890744776 3.0881667817 3.0849101134 3.079993655 3.0723259896 3.0627144489 
3.053345408 3.0442130889 3.0368328735 3.0389496025 3.2446402067 3.2445887253 3.121232563 3.2451073542 3.1145482766 
3.2414626433 3.0900296817 3.2403324573 3.1029972449 3.0994800354 3.2441996634 3.0943791712 3.0870586515 3.0874357067 
3.1090877764 3.2441731987 3.2449184223 3.0905835104 3.0895271316 3.0885798475 3.091528434 3.020843172 3.0311385085 
3.0015172125 3.0021815868 2.9850859395 2.9937830574 3.0078605246 3.0407104061 3.0618122733 3.0522013953 3.0953623656 
3.0745014 3.0936427043 3.1096444461 3.1201666872 3.1336492232 3.1456549087 3.1566644773 3.1652752343 3.1707790433 
3.165604563 3.1547029087 3.1434530109 3.1353330655 3.128576632 3.1224615218 3.1159535028 3.1106737543 3.1054860206 
3.0892539614 3.0857074048 3.0808540015 3.0736581305 3.063867517 3.0544827367 3.0464569328 3.0391967404 3.0293550689 
3.0955863702 3.1203681068 3.1349339402 3.1480119989 3.1577289231 3.1695708641 3.1819186952 3.190105952 3.2019195315 
3.2163079774 3.2287435609 3.2373069717 3.24245965 3.2500282917 3.252793698 3.2525612284 3.252519133 3.1035797006 
3.08729805 3.0866340221 3.0831855006 3.078484081 3.0710483126 3.0613891414 3.0521143653 3.0430704429 3.0357312016 
3.0379396813 3.252677177 3.2520397532 3.1198803106 3.2527154523 3.1132482496 3.2502206834 3.0892087261 3.2465282355 
3.1019248076 3.0985082765 3.2522872106 3.093399557 3.0852980516 3.0858508564 3.1079331796 3.2521618394 3.2534726729 
3.0896342081 3.0876743833 3.0871559483 3.0908709774 3.0201995572 3.031351247 3.0020170408 3.0020681816 2.9850051502 
2.994099911 3.00801124 3.040698737 3.0618267713 3.0528512349 3.0946265967 3.0752254897 3.0945074255 3.1103496837 
3.1211103597 3.1347374831 3.1471821534 3.158059867 3.1667783875 3.1722933014 3.1660268124 3.153535514 3.1422305195 
3.1343980041 3.1276057325 3.1216091495 3.1149392895 3.1099284054 3.1047581551 3.0886091282 3.0851678042 3.0803910635 
3.0732563249 3.0635239083 3.0541103835 3.0461291084 3.0388044138 3.0293176799 3.0953244149 3.1201917013 3.1347312206 
3.147862181 3.15771946 3.1696397091 3.1820162606 3.1907035177 3.2029338484 3.2176232935 3.2306137291 3.2405224814 
3.2467211865 3.2552322845 3.2594856979 3.2593670088 3.2600532018 3.112810899 3.0838880094 3.0834379978 3.0808183618 
3.0763221625 3.0691890989 3.0597444247 3.0506979802 3.0417750008 3.0345117798 3.0368756338 3.260547305 3.2575914611 
3.1189124791 3.2595918677 3.1123910428 3.258267816 3.0838901133 3.2512232619 3.1012427175 3.0979003349 3.259451543 
3.0926731819 3.0828165965 3.0831656991 3.107201211 3.2595073954 3.2608936477 3.0861858943 3.0837684504 3.0839440838 
3.0904947988 3.0196051408 3.0319436831 3.0024864148 3.0022248794 2.9850371527 2.99453719 3.00832517 3.0408002874 
3.0619520229 3.0533067024 3.0942247935 3.0757538985 3.0952433536 3.1109239122 3.1219048071 3.1355933505 3.1483815761 
3.1591276928 3.1679361236 3.1735389956 3.1664238042 3.1527184563 3.141617103 3.1340741658 3.1272208055 3.1212736713 
3.114612043 3.109678048 3.1044833734 3.0883733172 3.0849803685 3.0802384257 3.0731405881 3.0634271067 3.0538857638 
3.0459332839 3.0385679009 3.0292117698 3.0953166751 3.1202098269 3.1346379849 3.147836199 3.1578410503 3.1697953816 
3.1821868636 3.1912417697 3.2038432457 3.218723514 3.232104346 3.2426512006 3.2497149071 3.2590020738 3.2636270776 
3.2650809213 3.2658916469 3.131994762 3.0805844363 3.0798615446 3.0778304558 3.0734774212 3.0665858657 3.0573121478 
3.0484589148 3.0398328482 3.0327065657 3.0351626012 3.2664050907 3.2618252717 3.1185811094 3.2648810419 3.1121117453 
3.2644608374 3.0799248183 3.2545810154 3.1009958059 3.0977020684 3.2653344357 3.0922586937 3.0795389535 3.0797768126 
3.106931267 3.2654139988 3.2675698974 3.0820737522 3.079960602 3.080852954 3.0904954274 3.0190473739 3.0323533308 
3.0028982178 3.0025610587 2.9852063158 2.9950830179 3.0087239987 3.0410256254 3.0622224811 3.0535338028 3.0942737526 
3.0760569987 3.0956821597 3.1113465809 3.1225674691 3.1361260618 3.1492023239 3.1599708941 3.1688146771 3.1746375098 
3.1669862201 3.1524606342 3.1415641656 3.1342250746 3.127343445 3.1214176064 3.1147779916 3.1097239714 3.10448138 
3.0884333135 3.0850224026 3.080314959 3.0731905759 3.0634815066 3.0538122292 3.0458626118 3.0384446221 3.0292632475 
3.0955885112 3.1203817021 3.1348012263 3.1480683772 3.1581796702 3.1701479 3.182560392 3.1919119823 3.204831266 
3.2197564624 3.2334697586 3.2443316569 3.2518138942 3.261724855 3.2668357943 3.2689409584 3.2702184898 3.1558966957 
3.0777834851 3.0771904592 3.0749306231 3.070582299 3.0638596383 3.0546584803 3.045919627 3.0375641271 3.0306557998 
3.0329629355 3.2709745099 3.2647357505 3.1187381305 3.268290595 3.1122383061 3.2672414648 3.0772795308 3.2569073261 
3.1010370963 3.0977468934 3.2694792585 3.0922178521 3.0764991727 3.0767338593 3.1069270057 3.2696953752 3.2727490953 
3.0814143759 3.0772995173 3.0782684919 3.0907593426 3.0186140767 3.0328036562 3.0033617481 3.0033323966 2.9855847861 
2.9955719 3.0091496847 3.041309584 3.0627998361 3.0535335734 3.094586926 3.0761732159 3.0955714268 3.1111746156 
3.1225933795 3.1363027369 3.1496118535 3.1604500022 3.1692933856 3.1756317365 3.1677834629 3.1528184561 3.1418945988 
3.1347323909 3.1278663096 3.1219252196 3.1152012457 3.110158325 3.1048316558 3.088719025 3.0852529791 3.0805408091 
3.0733660825 3.0636520984 3.05388581 3.0459167633 3.0384361244 3.0296803173 3.0961705041 3.1207093138 3.1352995664 
3.148682981 3.1588888731 3.1708943941 3.1832292037 3.1928441921 3.2060075011 3.2208507334 3.2347883573 3.2458784765 
3.2534752764 3.2637386448 3.269065019 3.2715834958 3.2732425385 3.172133918 3.0742635573 3.0731671917 3.0718676609 
3.067543907 3.0608634836 3.0518263688 3.0432445202 3.0350992893 3.0285407797 3.0305709899 3.2742025848 3.266963754 
3.1191587503 3.2707346153 3.1126405077 3.2677792731 3.0737647116 3.2586460647 3.1013762472 3.0978851281 3.272274124 
3.0924815303 3.0733692634 3.0732858865 3.1073208487 3.2726336289 3.2750040119 3.0812118385 3.074216867 3.0748032062 
3.091256618 3.0185246272 3.0332304762 3.0039248564 3.0046713893 2.9861357092 2.9959209906 3.0095108279 3.0416914456 
3.063431743 3.0532598183 3.095201077 3.0758942095 3.0953818107 3.1108501897 3.1224906514 3.1361932724 3.1496497367 
3.1605230864 3.1693351667 3.1766046593 3.16890319 3.1538012257 3.1427935135 3.1356552015 3.128754356 3.1227637048 
3.1159640786 3.1107949022 3.1054148478 3.0892035667 3.0856517004 3.0809034491 3.0736556302 3.0639175398 3.0540817572 
3.0460784693 3.0385449585 3.0299977481 3.0969009533 3.1211773195 3.1361514171 3.14974778 3.1599923567 3.1720458842 
3.1842741162 3.194103892 3.207426512 3.2220602894 3.2361278313 3.2473687248 3.2549596251 3.2652094035 3.270900264 
3.2735727672 3.2753855159 3.1685835908 3.071386479 3.0701398234 3.0688289449 3.064608009 3.0580708986 3.0493733103 
3.0409750417 3.0331249094 3.0270081253 3.0286197778 3.276439774 3.2686864475 3.119942374 3.2726611713 3.1133622082 
3.2728526477 3.0710872081 3.2601009354 3.101931019 3.098501971 3.2743366082 3.0930466345 3.0703082768 3.0701357503 
3.1079223521 3.2747420496 3.2766228112 3.0768456658 3.0715727728 3.0716931932 3.0919861325 3.0192244809 3.033654066 
3.004512507 3.0064240015 2.9865933257 2.9963068339 3.0100202498 3.0421898477 3.0644181095 3.0525837586 3.095963607 
3.0752262538 3.0947277931 3.1101971262 3.1220625661 3.1357191713 3.1493207582 3.1603433773 3.169263159 3.1775852446 
3.170367202 3.1554729637 3.1440194514 3.1368157448 3.1298302914 3.1237169604 3.1168885702 3.1115985724 3.1061733724 
3.0898782338 3.0862390412 3.0814247123 3.0740848039 3.0642856331 3.0543582873 3.0463073342 3.0387480526 3.0300728102 
3.097582855 3.1218165478 3.137438307 3.1512000891 3.1614908157 3.1734899563 3.1856821491 3.1956495516 3.2090823926 
3.2234127804 3.2375510255 3.248786427 3.2563564365 3.2664963715 3.2723156461 3.2752304431 3.2770870309 3.1337183098 
3.0695473954 3.068740557 3.0676306125 3.0636960232 3.057632881 3.0490185408 3.0406836566 3.0330795407 3.0270916474 
3.0288441897 3.2782965409 3.2700698311 3.1209123221 3.2741800219 3.1142236236 3.2784851593 3.0711059673 3.2614166829 
3.1026439324 3.0992719217 3.2760326297 3.0937985052 3.0689095166 3.0687756721 3.1086977803 3.2764385791 3.2786612474 
3.0720095999 3.0705172568 3.0692123181 3.0927797936 3.0205092158 3.0341363409 3.0053937356 3.0092404511 2.9875025543 
2.9969648121 3.0106683872 3.0428325829 3.0657157267 3.0516116784 3.0967715401 3.0741937523 3.0936541468 3.1090984761 
3.1211706732 3.1347687215 3.1483821227 3.1602225601 3.1693103998 3.1783183912 3.1720015584 3.1576770608 3.145304397 
3.1379928506 3.1308617438 3.124641027 3.1178168883 3.11249902 3.1070363303 3.0905831407 3.0869254191 3.0820482985 
3.0746038492 3.064709066 3.0546922568 3.0465695469 3.0389731882 3.0297399971 3.0981216839 3.1227479422 3.1387216648 
3.1526897946 3.1631263194 3.1749511703 3.187205605 3.197400199 3.210862145 3.22491505 3.2389297533 3.2504932609 
3.2579441569 3.2678609516 3.274181653 3.2773518544 3.27930942 3.0779414404 3.0711816544 3.070991753 3.0702004119 
3.0663760324 3.060604519 3.0517319375 3.0433374979 3.035813636 3.029812916 3.0310081863 3.2800061644 3.2715358633 
3.1218943055 3.2760281229 3.1151164981 3.2828043307 3.0699180422 3.2628360943 3.1034119546 3.10003397 3.2780270357 
3.0945914145 3.0717146279 3.0720101268 3.1096055677 3.2785332785 3.280381804 3.0699752907 3.07098771 3.0713126367 
3.0935360175 3.0219265799 3.0339061663 3.0053968291 3.0117682676 2.9880353758 2.9981223418 3.0114485293 3.0431497402 
3.0667430943 3.0500583531 3.0975831667 3.0718518604 3.091419201 3.1070552666 3.1195008638 3.1330176678 3.1461562635 
3.1593724994 3.1685762876 3.1788197278 3.1739320632 3.1603586733 3.1469373633 3.139377656 3.1319635871 3.1256207099 
3.1189568762 3.1134219097 3.1081065712 3.0912385751 3.0875957582 3.0826513653 3.075077035 3.0650374143 3.0549312259 
3.0467414195 3.0390160916 3.0285603146 3.0985660369 3.1236818952 3.1402559404 3.1544102525 3.164958143 3.1768917316 
3.1889074718 3.1993990475 3.2130125321 3.2268943337 3.2413023226 3.2526422142 3.260120506 3.2702394838 3.2776958895 
3.2805670325 3.2807511045 3.0714673848 3.0748559026 3.0750704128 3.0744359713 3.0706131994 3.0647981726 3.0557479022 
3.0474542518 3.0397737763 3.0334933958 3.0348289613 3.2827078904 3.274198352 3.1229580749 3.2792194275 3.1161827432 
3.2887561674 3.0735428182 3.2648194598 3.1044165565 3.1008375564 3.2807337055 3.0953685968 3.0758291225 3.0759029795 
3.1107438927 3.2810150213 3.2919636298 3.07189814 3.0741385165 3.0750261872 3.09412796 3.0223792371 3.0306992309 
3.0036471289 3.0088116772 2.9862112095 2.9978592784 3.0118917088 3.0451034129 3.0680780692 3.0468444891 3.0977802676 
3.0686812408 3.0882188668 3.1045061311 3.1163246455 3.1302036578 3.1422630471 3.1587593391 3.1687696757 3.1806977013 
3.1775250053 3.1641289127 3.1501168023 3.1413650955 3.1333974327 3.1267794216 3.120401867 3.1149638408 3.1094968879 
3.0920940044 3.0883448198 3.0833263263 3.0757549121 3.0654724145 3.0551298364 3.0467154193 3.0387911516 3.0268225452 
3.1010410711 3.1253421112 3.1432128945 3.1582022236 3.16862412 3.1801315641 3.191688352 3.2029606873 3.2170711568 
3.2311620176 3.2457531404 3.260229698 3.2649049078 3.2741907376 3.2797804671 3.2802788332 3.2800629588 3.0692717924 
3.0775182726 3.0775066086 3.0785931915 3.0745523511 3.0686901347 3.059468999 3.0513099483 3.0433310884 3.0366500347 
3.0384929435 3.2814973825 3.2776312008 3.1242486181 3.2803079844 3.1171122574 3.0563241572 3.0753123137 3.2688417815 
3.1050285469 3.1012967583 3.280213076 3.0959508474 3.0791763791 3.0788584002 3.1122733177 3.2801308122 3.1649244648 
3.0728677101 3.0758572865 3.077547441 3.0950676076 3.0244196884 3.0321048581 3.0056868273 3.0100311231 2.9885954134 
3.0029490701 3.0158185765 3.0528205175 3.0727328457 3.0472933253 3.0992635399 3.0635134809 3.0843835836 3.1020943614 
3.1167950709 3.1290076536 3.1430036789 3.1624057762 3.1830534228 3.1856508416 3.1818131939 3.1677627215 3.1528036742 
3.1422937318 3.1340024983 3.1276841278 3.1191185408 3.1133694187 3.108265313 3.0927947381 3.0899925267 3.0845058089 
3.0756209791 3.066292605 3.0551756569 3.0462624215 3.0376911272 3.0249619778 3.1038373341 3.128408752 3.1515412234 
3.1654156725 3.1751718459 3.1896717629 3.199247098 3.2097143463 3.2280715328 3.2393942469 3.2563931135 3.265921436 