# vtk DataFile Version 4.2
vtk output
ASCII
DATASET POLYDATA
POINTS 6336 float
2269.54 -3237.17 5800 2276.87 -3250.17 5800 2852.13 -3250.15 5800 
2870.85 -3240.22 5800 2876.63 -3237.15 5800 2262.21 -3224.17 5800 
2899.85 -3224.83 5800 2901.13 -3224.15 5800 2254.87 -3211.17 5800 
2261.83 -3223.5 5800 2925.63 -3211.15 5800 2247.54 -3198.17 5800 
2928.85 -3209.44 5800 2950.13 -3198.14 5800 2240.6 -3185.17 5800 
2957.86 -3194.05 5800 2966.91 -3185.14 5800 2233.96 -3172.17 5800 
2975.61 -3172.14 5800 2227.31 -3159.17 5800 2232.83 -3169.97 5800 
2981.61 -3159.14 5800 2220.66 -3146.17 5800 2986.86 -3147.76 5800 
2987.61 -3146.14 5800 2214.01 -3133.16 5800 2993.61 -3133.14 5800 
2207.36 -3120.16 5800 2999.6 -3120.14 5800 2200.71 -3107.16 5800 
2203.84 -3113.27 5800 3005.6 -3107.14 5800 2194.07 -3094.16 5800 
3011.6 -3094.13 5800 2187.42 -3081.16 5800 3015.87 -3084.89 5800 
3017.6 -3081.13 5800 2180.77 -3068.16 5800 3023.6 -3068.13 5800 
2174.12 -3055.16 5800 2174.84 -3056.56 5800 3029.6 -3055.13 5800 
2167.47 -3042.16 5800 3035.59 -3042.13 5800 2160.83 -3029.16 5800 
3041.59 -3029.13 5800 2154.18 -3016.16 5800 3044.87 -3022.02 5800 
3047.59 -3016.13 5800 2147.53 -3003.16 5800 3053.59 -3003.13 5800 
2140.88 -2990.16 5800 2145.84 -2999.86 5800 3059.59 -2990.12 5800 
2134.23 -2977.16 5800 3065.59 -2977.12 5800 2127.59 -2964.15 5800 
3071.58 -2964.12 5800 2120.94 -2951.15 5800 3073.88 -2959.15 5800 
3077.58 -2951.12 5800 2114.29 -2938.15 5800 2116.85 -2943.15 5800 
3083.58 -2938.12 5800 2107.64 -2925.15 5800 3089.58 -2925.12 5800 
2100.99 -2912.15 5800 3095.58 -2912.12 5800 2094.34 -2899.15 5800 
3101.58 -2899.12 5800 2087.69 -2886.15 5800 2087.85 -2886.45 5800 
3102.88 -2896.28 5800 3107.48 -2886.11 5800 2080.65 -2873.15 5800 
3113.18 -2873.11 5800 2073.51 -2860.15 5800 3118.62 -2860.11 5800 
2066.24 -2847.15 5800 3123.88 -2847.11 5800 2058.94 -2834.15 5800 
3129.13 -2834.11 5800 2033.42 -2821.15 5800 2058.85 -2834.08 5800 
3131.89 -2827.29 5800 3134.39 -2821.11 5800 2004.81 -2808.15 5800 
2029.85 -2819.53 5800 3139.64 -2808.11 5800 1976.19 -2795.15 5800 
2000.85 -2806.35 5800 3144.9 -2795.11 5800 1947.58 -2782.15 5800 
1971.85 -2793.17 5800 3150.15 -2782.11 5800 1918.97 -2769.15 5800 
1942.85 -2780 5800 3155.41 -2769.1 5800 1890.36 -2756.15 5800 
1913.85 -2766.82 5800 3160.66 -2756.1 5800 1878.68 -2743.15 5800 
1884.85 -2753.65 5800 3160.9 -2755.52 5800 3165.92 -2743.1 5800 
1874.24 -2730.15 5800 3171.17 -2730.1 5800 1874.21 -2717.14 5800 
3176.43 -2717.1 5800 1874.18 -2704.14 5800 3181.68 -2704.1 5800 
1874.15 -2691.14 5800 3186.94 -2691.1 5800 1874.12 -2678.14 5800 
3189.9 -2683.75 5800 3192.19 -2678.1 5800 1874.09 -2665.14 5800 
3197.45 -2665.09 5800 1874.06 -2652.14 5800 3202.7 -2652.09 5800 
1874.03 -2639.14 5800 3207.96 -2639.09 5800 1874 -2626.14 5800 
3213.21 -2626.09 5800 1873.97 -2613.14 5800 3218.46 -2613.09 5800 
1873.94 -2600.14 5800 3218.91 -2611.99 5800 3223.72 -2600.09 5800 
1873.92 -2587.13 5800 3228.97 -2587.09 5800 1873.89 -2574.13 5800 
3234.23 -2574.09 5800 1873.86 -2561.13 5800 3239.48 -2561.09 5800 
1873.83 -2548.13 5800 3244.74 -2548.08 5800 1873.8 -2535.13 5800 
3247.92 -2540.22 5800 3249.99 -2535.08 5800 1873.77 -2522.13 5800 
3255.25 -2522.08 5800 1873.74 -2509.13 5800 3260.5 -2509.08 5800 
1873.71 -2496.13 5800 3265.76 -2496.08 5800 1873.68 -2483.13 5800 
3271.01 -2483.08 5800 1873.65 -2470.13 5800 3276.27 -2470.08 5800 
1873.62 -2457.12 5800 3276.92 -2468.45 5800 3281.55 -2457.08 5800 
1873.59 -2444.12 5800 3286.78 -2444.07 5800 1873.56 -2431.12 5800 
3292.03 -2431.07 5800 1873.53 -2418.12 5800 3297.29 -2418.07 5800 
1873.5 -2405.12 5800 3302.54 -2405.07 5800 1873.47 -2392.12 5800 
3305.93 -2396.69 5800 3307 -2392.07 5800 1873.45 -2379.12 5800 
3310.46 -2379.07 5800 1873.53 -2366.12 5800 3310.41 -2366.07 5800 
1873.6 -2353.12 5800 3311.31 -2353.07 5800 1873.67 -2340.12 5800 
3312.21 -2340.07 5800 1873.79 -2327.11 5800 3313.08 -2327.06 5800 
1874.02 -2314.11 5800 3313.95 -2314.06 5800 1874.24 -2301.11 5800 
3314.8 -2301.06 5800 1874.47 -2288.11 5800 3315.65 -2288.06 5800 
1874.69 -2275.11 5800 3316.33 -2275.06 5800 1874.92 -2262.11 5800 
3317 -2262.06 5800 1875.14 -2249.11 5800 3317.67 -2249.06 5800 
1875.37 -2236.11 5800 3318.34 -2236.06 5800 1875.59 -2223.11 5800 
3319.02 -2223.06 5800 1875.82 -2210.11 5800 3319.69 -2210.06 5800 
1876.04 -2197.1 5800 3320.36 -2197.05 5800 1876.26 -2184.1 5800 
3321.04 -2184.05 5800 1876.49 -2171.1 5800 3321.71 -2171.05 5800 
1876.71 -2158.1 5800 3322.38 -2158.05 5800 1876.94 -2145.1 5800 
3323.06 -2145.05 5800 1877.16 -2132.1 5800 3323.73 -2132.05 5800 
1877.39 -2119.1 5800 3324.4 -2119.05 5800 1877.61 -2106.1 5800 
3325.08 -2106.05 5800 1877.84 -2093.1 5800 3325.75 -2093.05 5800 
1878.06 -2080.1 5800 3326.42 -2080.05 5800 1878.29 -2067.09 5800 
3327.1 -2067.04 5800 1878.51 -2054.09 5800 3327.77 -2054.04 5800 
1878.73 -2041.09 5800 3328.44 -2041.04 5800 1878.96 -2028.09 5800 
3329.12 -2028.04 5800 1879.18 -2015.09 5800 3329.79 -2015.04 5800 
1877.48 -2002.09 5800 3330.46 -2002.04 5800 1873.85 -1989.09 5800 
3331.14 -1989.04 5800 1870.22 -1976.09 5800 3331.81 -1976.04 5800 
1866.6 -1963.09 5800 3332.48 -1963.04 5800 1862.97 -1950.09 5800 
3333.16 -1950.04 5800 1859.34 -1937.08 5800 3333.83 -1937.03 5800 
1855.71 -1924.08 5800 1855.92 -1924.82 5800 3334.5 -1924.03 5800 
1852.08 -1911.08 5800 3334.97 -1914.24 5800 3335.12 -1911.03 5800 
1848.46 -1898.08 5800 3335.62 -1898.03 5800 1844.83 -1885.08 5800 
3336.12 -1885.03 5800 1843.37 -1872.08 5800 3336.62 -1872.03 5800 
1843.49 -1859.08 5800 3337.11 -1859.03 5800 1843.57 -1846.08 5800 
3337.61 -1846.03 5800 1846.25 -1833.08 5800 3338.11 -1833.03 5800 
1849.13 -1820.08 5800 3338.61 -1820.02 5800 1852 -1807.08 5800 
3339.11 -1807.02 5800 1854.87 -1794.07 5800 3339.61 -1794.02 5800 
1855.93 -1789.3 5800 1857.74 -1781.07 5800 3340.11 -1781.02 5800 
1860.62 -1768.07 5800 3340.61 -1768.02 5800 1863.49 -1755.07 5800 
3341.11 -1755.02 5800 1866.36 -1742.07 5800 3341.61 -1742.02 5800 
1869.23 -1729.07 5800 3342.11 -1729.02 5800 1872.11 -1716.07 5800 
3342.61 -1716.02 5800 1874.98 -1703.07 5800 3343.1 -1703.02 5800 
1877.85 -1690.07 5800 3343.6 -1690.01 5800 1880.73 -1677.06 5800 
3344.1 -1677.01 5800 1883.6 -1664.06 5800 3344.6 -1664.01 5800 
1884.94 -1658 5800 1886.47 -1651.06 5800 3345.1 -1651.01 5800 
1889.34 -1638.06 5800 3345.6 -1638.01 5800 1892.22 -1625.06 5800 
3346.1 -1625.01 5800 1895.09 -1612.06 5800 3346.6 -1612.01 5800 
1897.96 -1599.06 5800 3344.41 -1599.01 5800 1900.84 -1586.06 5800 
3339.6 -1586.01 5800 1903.71 -1573.06 5800 3334.99 -1576.59 5800 
3333.24 -1573.01 5800 1906.59 -1560.05 5800 3326.88 -1560.01 5800 
1909.46 -1547.05 5800 3320.52 -1547 5800 1912.34 -1534.05 5800 
3314.52 -1534 5800 1913.95 -1526.77 5800 1915.21 -1521.05 5800 
3311.78 -1521 5800 1918.09 -1508.05 5800 3310.04 -1508 5800 
1920.96 -1495.05 5800 3308.47 -1495 5800 1923.84 -1482.05 5800 
3306.91 -1482 5800 1925.64 -1469.05 5800 3306 -1474.49 5800 
3305.52 -1469 5800 1926.17 -1456.05 5800 3304.47 -1456 5800 
1926.69 -1443.04 5800 3303.54 -1443 5800 1927.22 -1430.04 5800 
3302.7 -1430 5800 1927.74 -1417.04 5800 3301.95 -1417 5800 
1928.26 -1404.04 5800 3302.24 -1403.99 5800 1928.79 -1391.04 5800 
3302.75 -1390.99 5800 1929.31 -1378.04 5800 3303.26 -1377.99 5800 
1929.83 -1365.04 5800 3303.77 -1364.99 5800 1930.36 -1352.04 5800 
3304.28 -1351.99 5800 1930.88 -1339.04 5800 3304.79 -1338.99 5800 
1931.41 -1326.04 5800 3305.3 -1325.99 5800 1931.93 -1313.03 5800 
3305.81 -1312.99 5800 1932.11 -1300.03 5800 3306.01 -1307.9 5800 
3306.32 -1299.99 5800 1932.12 -1287.03 5800 3306.83 -1286.98 5800 
1932.13 -1274.03 5800 3307.34 -1273.98 5800 1932.14 -1261.03 5800 
3307.85 -1260.98 5800 1932.15 -1248.03 5800 3308.37 -1247.98 5800 
1932.38 -1235.03 5800 3308.88 -1234.98 5800 1932.95 -1222.03 5800 
3309.39 -1221.98 5800 1933.46 -1209.03 5800 3309.91 -1208.98 5800 
1933.92 -1196.03 5800 3310.44 -1195.98 5800 1935.22 -1183.02 5800 
3310.97 -1182.98 5800 1936.61 -1170.02 5800 3311.5 -1169.98 5800 
1937.99 -1157.02 5800 3312.07 -1156.97 5800 1939.38 -1144.02 5800 
3312.67 -1143.97 5800 1940.77 -1131.02 5800 3313.28 -1130.97 5800 
1942.16 -1118.02 5800 3313.88 -1117.97 5800 1942.98 -1110.3 5800 
1943.55 -1105.02 5800 3314.49 -1104.97 5800 1944.93 -1092.02 5800 
3315.09 -1091.97 5800 1946.32 -1079.02 5800 2548.43 -1079 5800 
2552 -1083.58 5800 2581.01 -1086.17 5800 2596.7 -1078.99 5800 
3315.7 -1078.97 5800 1954.52 -1066.01 5800 2538.3 -1065.99 5800 
2610.01 -1072.91 5800 2625.14 -1065.99 5800 3315.58 -1065.97 5800 
1963.22 -1053.01 5800 2528.16 -1052.99 5800 2639.01 -1059.65 5800 
2653.58 -1052.99 5800 3314.52 -1052.97 5800 1971.92 -1040.01 5800 
2518.03 -1039.99 5800 2523.01 -1046.38 5800 2668.01 -1046.41 5800 
2684.27 -1039.99 5800 3313.47 -1039.97 5800 1971.99 -1039.91 5800 
1978.34 -1027.01 5800 2507.9 -1026.99 5800 2697.01 -1035.49 5800 
2722.64 -1026.99 5800 3312.41 -1026.96 5800 1982.87 -1014.01 5800 
2491.2 -1013.99 5800 2494.01 -1015.73 5800 2726.01 -1025.81 5800 
2755.02 -1017.09 5800 2757.65 -1013.98 5800 3311.35 -1013.96 5800 
1985.11 -1001.01 5800 2469.86 -1000.99 5800 2767.41 -1000.98 5800 
3310.3 -1000.96 5800 1987.34 -988.008 5800 2448.52 -987.992 5800 
2465.01 -998.035 5800 2775.5 -987.98 5800 3309.24 -987.962 5800 
1989.57 -975.006 5800 2427.18 -974.991 5800 2436.01 -980.369 5800 
2782.32 -974.979 5800 3308.4 -974.961 5800 1991.81 -962.005 5800 
2405.23 -961.991 5800 2407.01 -963.017 5800 2784.02 -971.434 5800 
2787.86 -961.978 5800 3307.47 -961.96 5800 1994.04 -949.004 5800 
2383.06 -948.991 5800 2793.15 -948.977 5800 3306.73 -948.959 5800 
1996.27 -936.003 5800 2374.2 -935.99 5800 2378.01 -944.6 5800 
2798.44 -935.976 5800 3306.04 -942.779 5800 3305.17 -935.958 5800 
1998.5 -923.002 5800 2368.45 -922.989 5800 2803.73 -922.974 5800 
3301.51 -922.957 5800 2000.74 -910.001 5800 2362.7 -909.989 5800 
2809.07 -909.973 5800 3298.56 -909.956 5800 2001 -908.48 5800 
2002.97 -897 5800 2356.95 -896.988 5800 2813.03 -900.116 5800 
[...]
POINT_DATA 6336
SCALARS Pressure double
LOOKUP_TABLE default
3.0932710339 3.0932710339 3.0932710339 3.0932710339 3.0932710339 3.0932710339 3.0932710339 3.0932710339 3.0932710339 
3.0932710339 3.0932710339 3.0932710339 3.0932710339 3.0932710339 3.0932710339 3.0932710339 3.0932710339 3.0932710339 
3.0932710339 3.0932710339 3.0932710339 3.0932710339 3.0932710339 3.0932710339 3.0932710339 3.0932710339 3.0932710339 
3.0932710339 3.0932710339 3.0932710339 3.0932710339 3.0932710339 3.0932710339 3.0932710339 3.0932710339 3.0932710339 
3.0932710339 3.0932710339 3.0932710339 3.0932710339 3.0932710339 3.0932710339 3.0932710339 3.0932710339 3.0932710339 
3.0932710339 3.0932710339 3.0932710339 3.0932710339 3.0932710339 3.0932710339 3.0932710339 3.0932710339 3.0932710339 
3.0932710339 3.0932710339 3.0932710339 3.0932710339 3.0932710339 3.0932710339 3.0932710339 3.0932710339 3.0932710339 
3.0932710339 3.0932710339 3.0932710339 3.0932710339 3.0932710339 3.0932710339 3.0932710339 3.0932710339 3.0932710339 
3.0932710339 3.0932710339 3.0932710339 3.0932710339 3.0932710339 3.0932710339 3.0932710339 3.0932710339 3.0932710339 
3.0932710339 3.0932710339 3.0932710339 3.0932710339 3.0932710339 3.0932710339 3.0932710339 3.0932710339 3.0932710339 
3.0932710339 3.0932710339 3.0932710339 3.0932710339 3.0932710339 3.0932710339 3.0932710339 3.0932710339 3.0932710339 
3.0932710339 3.0932710339 3.0932710339 3.0932710339 3.0932710339 3.0932710339 3.0932710339 3.0932710339 3.0932710339 
3.0932710339 3.0932710339 3.0932710339 3.0932710339 3.0932710339 3.0932710339 3.0932710339 3.0932710339 3.0932710339 
3.0932710339 3.0932710339 3.0932710339 3.0932710339 3.0932710339 3.0932710339 3.0932710339 3.0932710339 3.0932710339 
3.0932710339 3.0932710339 3.0932710339 3.0932710339 3.0932710339 3.0932710339 3.0932710339 3.0932710339 3.0932710339 
3.0932710339 3.0932710339 3.0932710339 3.0932710339 3.0932710339 3.0932710339 3.0932710339 3.0932710339 3.0932710339 
3.0932710339 3.0932710339 3.0932710339 3.0932710339 3.0932710339 3.0932710339 3.0932710339 3.0932710339 3.0932710339 
3.0932710339 3.0932710339 3.0932710339 3.0932710339 3.0932710339 3.0932710339 3.0932710339 3.0932710339 3.0932710339 
3.0932710339 3.0932710339 3.0932710339 3.0932710339 3.0932710339 3.0932710339 3.0932710339 3.0932710339 3.0932710339 
3.0932710339 3.0932710339 3.0932710339 3.0932710339 3.0932710339 3.0932710339 3.0932710339 3.0932710339 3.0932710339 
3.0932710339 3.0932710339 3.0932710339 3.0932710339 3.0932710339 3.0932710339 3.0932710339 3.0932710339 3.0932710339 
3.0932710339 3.0932710339 3.0932710339 3.0932710339 3.0932710339 3.0932710339 3.0932710339 3.0932710339 3.0932710339 
3.0932710339 3.0932710339 3.0932710339 3.0932710339 3.0932710339 3.0932710339 3.0932710339 3.0932710339 3.0932710339 
3.0932710339 3.0932710339 3.0932710339 3.0932710339 3.0932710339 3.0932710339 3.0932710339 3.0932710339 3.0932710339 
3.0932710339 3.0932710339 3.0932710339 3.0932710339 3.0932710339 3.0932710339 3.0932710339 3.0932710339 3.0932710339 
3.0932710339 3.0932710339 3.0932710339 3.0932710339 3.0932710339 3.0932710339 3.0932710339 3.0932710339 3.0932710339 
3.0932710339 3.0932710339 3.0932710339 3.0932710339 3.0932710339 3.0932710339 3.0932710339 3.0932710339 3.0932710339 
3.0932710339 3.0932710339 3.0932710339 3.0932710339 3.0932710339 3.0932710339 3.0932710339 3.0932710339 3.0932710339 
3.0932710339 3.0932710339 3.0932710339 3.0932710339 3.0932710339 3.0932710339 3.0932710339 3.0932710339 3.0932710339 
3.0932710339 3.0932710339 3.0932710339 3.0932710339 3.0932710339 3.0932710339 3.0932710339 3.0932710339 3.0932710339 
3.0932710339 3.0932710339 3.0932710339 3.0932710339 3.0932710339 3.0932710339 3.0932710339 3.0932710339 3.0932710339 
3.0932710339 3.0932710339 3.0932710339 3.0932710339 3.0932710339 3.0932710339 3.0932710339 3.0932710339 3.0932710339 
3.0932710339 3.0932710339 3.0932710339 3.0932710339 3.0932710339 3.0932710339 3.0932710339 3.0932710339 3.0932710339 
3.0932710339 3.0932710339 3.0932710339 3.0932710339 3.0932710339 3.0932710339 3.0932710339 3.0932710339 3.0932710339 
3.0932710339 3.0932710339 3.0932710339 3.0932710339 3.0932710339 3.0932710339 3.0932710339 3.0932710339 3.0932710339 
3.0932710339 3.0932710339 3.0932710339 3.0932710339 3.0932710339 3.0932710339 3.0932710339 3.0932710339 3.0932710339 
3.0932710339 3.0932710339 3.0932710339 3.0932710339 3.0932710339 3.0932710339 3.0932710339 3.0932710339 3.0932710339 
3.0932710339 3.0932710339 3.0932710339 3.0932710339 3.0932710339 3.0932710339 3.0932710339 3.0932710339 3.0932710339 
3.0932710339 3.0932710339 3.0932710339 3.0932710339 3.0932710339 3.0932710339 3.0932710339 3.0932710339 3.0932710339 
3.0932710339 3.0932710339 3.0932710339 3.0932710339 3.0932710339 3.0932710339 3.0932710339 3.0932710339 3.0932710339 
3.0932710339 3.0932710339 3.0932710339 3.0932710339 3.0932710339 3.0932710339 3.0932710339 3.0932710339 3.0932710339 
3.0932710339 3.0932710339 3.0932710339 3.0932710339 3.0932710339 3.1078652246 3.1078652246 3.1078652246 3.1078652246 
3.0932710339 3.0932710339 3.1078652246 3.1078652246 3.1078652246 3.0932710339 3.0932710339 3.1078652246 3.1078652246 
3.1078652246 3.0932710339 3.0932710339 3.1078652246 3.1078652246 3.1078652246 3.1078652246 3.0932710339 3.0932710339 
3.0932710339 3.1078652246 3.1078652246 3.1078652246 3.0932710339 3.0932710339 3.1078652246 3.1078652246 3.1078652246 
3.1078652246 3.1078652246 3.0932710339 3.0932710339 3.1078652246 3.1078652246 3.0932710339 3.0932710339 3.1078652246 
3.1078652246 3.1078652246 3.0932710339 3.0932710339 3.1078652246 3.1078652246 3.1078652246 3.0932710339 3.0932710339 
3.1078652246 3.1078652246 3.1078652246 3.1078652246 3.0932710339 3.0932710339 3.1078652246 3.1078652246 3.0932710339 
3.0932710339 3.1078652246 3.1078652246 3.1078652246 3.0932710339 3.0932710339 3.0932710339 3.1078652246 3.1078652246 
3.0932710339 3.0932710339 3.1078652246 3.1078652246 3.0932710339 3.0932710339 3.0932710339 3.1078652246 3.1078652246 
3.1078652246 3.0932710339 3.0932710339 3.1078652246 3.1078652246 3.0932710339 3.0932710339 3.1078652246 3.1078652246 
3.1078652246 3.0932710339 3.0932710339 3.1078652246 3.1078652246 3.0932710339 3.0932710339 3.1078652246 3.1078652246 
3.0932710339 3.0932710339 3.1078652246 3.1078652246 3.0932710339 3.0932710339 3.1078652246 3.1078652246 3.1078652246 
3.0932710339 3.0932710339 3.0932710339 3.1078652246 3.1078652246 3.1078652246 3.0932710339 3.0932710339 3.1078652246 
3.1078652246 3.0932710339 3.0932710339 3.1078652246 3.1078652246 3.0932710339 3.0932710339 3.1078652246 3.1078652246 
3.1078652246 3.1078652246 3.0932710339 3.0932710339 3.1078652246 3.1078652246 3.0932710339 3.0932710339 3.1078652246 
3.1078652246 3.0932710339 3.0932710339 3.1078652246 3.1078652246 3.1078652246 3.0932710339 3.0932710339 3.0932710339 
3.1078652246 3.1078652246 3.0932710339 3.0932710339 3.1078652246 3.1078652246 3.0932710339 3.0932710339 3.0932710339 
3.1078652246 3.1078652246 3.0932710339 3.0932710339 3.1078652246 3.1078652246 3.1224594153 3.1224594153 3.1224594153 
3.1224594153 3.1078652246 3.0932710339 3.0932710339 3.1078652246 3.1224594153 3.1224594153 3.1224594153 3.1224594153 
3.1078652246 3.0932710339 3.0932710339 3.1078652246 3.1224594153 3.1224594153 3.1224594153 3.1224594153 3.1078652246 
3.1078652246 3.0932710339 3.0932710339 3.1078652246 3.1224594153 3.1224594153 3.1078652246 3.0932710339 3.0932710339 
3.1078652246 3.1224594153 3.1224594153 3.1224594153 3.1078652246 3.0932710339 3.0932710339 3.1078652246 3.1224594153 
3.1224594153 3.1224594153 3.1078652246 3.0932710339 3.0932710339 3.0932710339 3.1078652246 3.1224594153 3.1224594153 
3.1224594153 3.1078652246 3.0932710339 3.0932710339 3.1078652246 3.1224594153 3.1224594153 3.1224594153 3.1078652246 
3.1078652246 3.0932710339 3.0932710339 3.0932710339 3.1078652246 3.1224594153 3.1224594153 3.1224594153 3.1078652246 
3.0932710339 3.0932710339 3.1078652246 3.1078652246 3.1224594153 3.1224594153 3.1224594153 3.1078652246 3.0932710339 
3.0932710339 3.1078652246 3.1224594153 3.1224594153 3.1224594153 3.1078652246 3.0932710339 3.0932710339 3.1078652246 
3.1224594153 3.1224594153 3.1078652246 3.0932710339 3.0932710339 3.1078652246 3.1224594153 3.1224594153 3.1224594153 
3.1078652246 3.1078652246 3.0932710339 3.0932710339 3.1078652246 3.1224594153 3.1224594153 3.1224594153 3.1078652246 
3.0932710339 3.0932710339 3.1078652246 3.1224594153 3.1224594153 3.1078652246 3.0932710339 3.0786768432 3.0786768432 
3.0786768432 3.0932710339 3.0932710339 3.1078652246 3.1224594153 3.1224594153 3.1078652246 3.0932710339 3.0786768432 
3.0786768432 3.0786768432 3.0786768432 3.0932710339 3.1078652246 3.1224594153 3.1224594153 3.137053606 3.137053606 
3.137053606 3.137053606 3.1224594153 3.1078652246 3.0932710339 3.0786768432 3.0786768432 3.0786768432 3.0932710339 
3.1078652246 3.1224594153 3.137053606 3.137053606 3.137053606 3.137053606 3.137053606 3.1224594153 3.1224594153 
3.1078652246 3.1078652246 3.0932710339 3.0786768432 3.0786768432 3.0932710339 3.1078652246 3.1224594153 3.137053606 
3.137053606 3.137053606 3.1224594153 3.1078652246 3.0932710339 3.0786768432 3.0786768432 3.0786768432 3.0786768432 
3.0786768432 3.0786768432 3.0786768432 3.0932710339 3.1078652246 3.1224594153 3.137053606 3.137053606 3.137053606 
3.1224594153 3.1078652246 3.0932710339 3.0786768432 3.0786768432 3.0786768432 3.0786768432 3.0786768432 3.0786768432 
3.0786768432 3.0786768432 3.0932710339 3.1078652246 3.1224594153 3.137053606 3.137053606 3.137053606 3.1224594153 
3.1224594153 3.1078652246 3.0932710339 3.0786768432 3.0786768432 3.0786768432 3.0786768432 3.0786768432 3.0786768432 
3.0786768432 3.0786768432 3.0786768432 3.0786768432 3.0932710339 3.1078652246 3.1224594153 3.137053606 3.137053606 
3.137053606 3.1224594153 3.1078652246 3.0932710339 3.0786768432 3.0786768432 3.0786768432 3.0786768432 3.0786768432 
3.0932710339 3.1078652246 3.1078652246 3.1224594153 3.1224594153 3.137053606 3.137053606 3.1224594153 3.1078652246 
3.0932710339 3.0786768432 3.0786768432 3.0786768432 3.0786768432 3.0786768432 3.0786768432 3.0932710339 3.1078652246 
3.1224594153 3.137053606 3.137053606 3.137053606 3.1224594153 3.1078652246 3.1078652246 3.0932710339 3.0786768432 
3.0786768432 3.0786768432 3.0786768432 3.0786768432 3.0786768432 3.0932710339 3.1078652246 3.1224594153 3.137053606 
3.137053606 3.1224594153 3.1078652246 3.0932710339 3.0786768432 3.0786768432 3.0786768432 3.0786768432 3.0786768432 
3.0786768432 3.0932710339 3.1078652246 3.1224594153 3.137053606 3.137053606 3.137053606 3.1224594153 3.1224594153 
3.1078652246 3.0932710339 3.0786768432 3.0786768432 3.0786768432 3.0786768432 3.0786768432 3.0786768432 3.0786768432 
3.0932710339 3.1078652246 3.1224594153 3.137053606 3.1516477967 3.1516477967 3.1516477967 3.1516477967 3.137053606 
3.1224594153 3.1078652246 3.0932710339 3.0786768432 3.0786768432 3.0786768432 3.0786768432 3.0932710339 3.0932710339 
3.1078652246 3.1224594153 3.137053606 3.137053606 3.1516477967 3.1516477967 3.1516477967 3.137053606 3.1224594153 
3.1078652246 3.0932710339 3.0786768432 3.0786768432 3.0786768432 3.0786768432 3.0786768432 3.0786768432 3.0786768432 
3.0932710339 3.1078652246 3.1224594153 3.1224594153 3.137053606 3.1516477967 3.1516477967 3.1516477967 3.1516477967 
3.137053606 3.1224594153 3.1078652246 3.0932710339 3.0786768432 3.0786768432 3.0786768432 3.0786768432 3.0786768432 
3.0932710339 3.1078652246 3.1224594153 3.137053606 3.1516477967 3.1516477967 3.1516477967 3.137053606 3.1224594153 
3.1078652246 3.0932710339 3.0786768432 3.0786768432 3.0786768432 3.0786768432 3.0786768432 3.0932710339 3.1078652246 
3.1224594153 3.137053606 3.137053606 3.1516477967 3.1516477967 3.1516477967 3.137053606 3.1224594153 3.1078652246 
3.0932710339 3.0932710339 3.0786768432 3.0786768432 3.0786768432 3.0786768432 3.0786768432 3.0786768432 3.0932710339 
3.1078652246 3.1224594153 3.137053606 3.1516477967 3.1516477967 3.137053606 3.1224594153 3.1224594153 3.1078652246 
3.0932710339 3.0786768432 3.0786768432 3.0786768432 3.0786768432 3.0932710339 3.1078652246 3.1224594153 3.137053606 
3.1516477967 3.1516477967 3.137053606 3.137053606 3.1224594153 3.1078652246 3.0932710339 3.0932710339 3.0786768432 
3.0786768432 3.0786768432 3.0786768432 3.0786768432 3.0786768432 3.0932710339 3.1078652246 3.1224594153 3.137053606 
3.1516477967 3.1516477967 3.1516477967 3.1516477967 3.137053606 3.1224594153 3.1078652246 3.1078652246 3.0932710339 
3.0786768432 3.0786768432 3.0786768432 3.0786768432 3.0786768432 3.0932710339 3.1078652246 3.1224594153 3.137053606 
3.137053606 3.1516477967 3.1662419875 3.1662419875 3.1662419875 3.1516477967 3.137053606 3.1224594153 3.1078652246 
3.0932710339 3.0786768432 3.0786768432 3.0786768432 3.0786768432 3.0932710339 3.1078652246 3.1224594153 3.1224594153 
3.137053606 3.1516477967 3.1516477967 3.1662419875 3.1662419875 3.1662419875 3.1662419875 3.1516477967 3.137053606 
3.1224594153 3.1078652246 3.0932710339 3.0786768432 3.0786768432 3.0786768432 3.0786768432 3.0932710339 3.1078652246 
3.1224594153 3.137053606 3.1516477967 3.1662419875 3.1662419875 3.1662419875 3.1662419875 3.1516477967 3.137053606 
3.1224594153 3.1078652246 3.0932710339 3.0786768432 3.0786768432 3.0786768432 3.0786768432 3.0932710339 3.1078652246 
3.1224594153 3.137053606 3.1516477967 3.1662419875 3.1662419875 3.1516477967 3.137053606 3.1224594153 3.1078652246 
3.0932710339 3.0786768432 3.0786768432 3.0786768432 3.0786768432 3.0786768432 3.0640826525 3.0640826525 3.0640826525 
3.0640826525 3.0640826525 3.0640826525 3.0786768432 3.0932710339 3.1078652246 3.1078652246 3.1224594153 3.137053606 
3.1516477967 3.1662419875 3.1662419875 3.1662419875 3.1516477967 3.137053606 3.1224594153 3.1078652246 3.0932710339 
3.0786768432 3.0786768432 3.0786768432 3.0786768432 3.0640826525 3.0640826525 3.0640826525 3.0640826525 3.0640826525 
3.0786768432 3.0786768432 3.0932710339 3.1078652246 3.1224594153 3.137053606 3.137053606 3.1516477967 3.1516477967 
3.1662419875 3.1662419875 3.1662419875 3.1516477967 3.137053606 3.137053606 3.1224594153 3.1078652246 3.0932710339 
3.0786768432 3.0786768432 3.0786768432 3.0640826525 3.0640826525 3.0640826525 3.0786768432 3.0932710339 3.1078652246 
3.1224594153 3.137053606 3.1516477967 3.1662419875 3.1662419875 3.1516477967 3.137053606 3.1224594153 3.1078652246 
3.1078652246 3.0932710339 3.0786768432 3.0786768432 3.0786768432 3.0640826525 3.0640826525 3.0786768432 3.0932710339 
3.1078652246 3.1224594153 3.137053606 3.1516477967 3.1516477967 3.1662419875 3.1662419875 3.1662419875 3.1516477967 
3.1516477967 3.137053606 3.1224594153 3.1078652246 3.0932710339 3.0786768432 3.0786768432 3.0786768432 3.0786768432 
3.0640826525 3.0640826525 3.0640826525 3.0640826525 3.0786768432 3.0932710339 3.1078652246 3.1224594153 3.1224594153 
3.137053606 3.1516477967 3.1662419875 3.1662419875 3.1662419875 3.1516477967 3.137053606 3.1224594153 3.1078652246 
3.0932710339 3.0786768432 3.0786768432 3.0786768432 3.0640826525 3.0640826525 3.0786768432 3.0932710339 3.1078652246 
3.1224594153 3.137053606 3.137053606 3.1516477967 3.1662419875 3.1662419875 3.1516477967 3.137053606 3.1224594153 
3.1078652246 3.0932710339 3.0786768432 3.0786768432 3.0786768432 3.0786768432 3.0640826525 3.0494884618 3.0494884618 
3.0494884618 3.0640826525 3.0786768432 3.0932710339 3.1078652246 3.1224594153 3.137053606 3.1516477967 3.1516477967 
3.1662419875 3.1662419875 3.1808361782 3.1808361782 3.1808361782 3.1808361782 3.1808361782 3.1662419875 3.1516477967 
3.137053606 3.1224594153 3.1078652246 3.0932710339 3.0932710339 3.0786768432 3.0786768432 3.0786768432 3.0786768432 
3.0640826525 3.0494884618 3.0494884618 3.0494884618 3.0494884618 3.0494884618 3.0640826525 3.0640826525 3.0786768432 
3.0932710339 3.1078652246 3.1224594153 3.137053606 3.1516477967 3.1662419875 3.1808361782 3.1808361782 3.1808361782 
3.1662419875 3.1516477967 3.137053606 3.1224594153 3.1078652246 3.0932710339 3.0786768432 3.0786768432 3.0786768432 
3.0786768432 3.0640826525 3.0494884618 3.0494884618 3.0494884618 3.0640826525 3.0786768432 3.0932710339 3.1078652246 
3.1224594153 3.137053606 3.137053606 3.1516477967 3.1662419875 3.1662419875 3.1808361782 3.1808361782 3.1808361782 
3.1662419875 3.1516477967 3.137053606 3.1224594153 3.1078652246 3.0932710339 3.0786768432 3.0786768432 3.0640826525 
3.0640826525 3.0640826525 3.0640826525 3.0640826525 3.0786768432 3.0786768432 3.0786768432 3.0786768432 3.0786768432 
3.0786768432 3.0640826525 3.0640826525 3.0494884618 3.0494884618 3.0494884618 3.0640826525 3.0786768432 3.0932710339 
3.1078652246 3.1224594153 3.1224594153 3.137053606 3.1516477967 3.1662419875 3.1808361782 3.1808361782 3.1808361782 
3.1662419875 3.1516477967 3.137053606 3.1224594153 3.1078652246 3.0932710339 3.0786768432 3.0640826525 3.0640826525 
3.0640826525 3.0786768432 3.0786768432 3.0786768432 3.0786768432 3.0640826525 3.0494884618 3.0348942711 3.0348942711 
3.0348942711 3.0494884618 3.0640826525 3.0786768432 3.0932710339 3.1078652246 3.1078652246 3.1224594153 3.137053606 
3.1516477967 3.1516477967 3.1662419875 2.9473291268 2.9473291268 2.9619233175 2.9619233175 2.9765175082 2.9765175082 
2.991111699 2.991111699 3.0057058897 3.0057058897 3.0203000804 3.0203000804 3.0348942711 3.0348942711 3.0494884618 
3.0494884618 3.0640826525 3.0640826525 3.0786768432 3.0786768432 3.0932710339 3.0932710339 3.1078652246 3.1078652246 
3.1224594153 3.1224594153 3.137053606 3.137053606 3.1516477967 3.1516477967 3.1662419875 3.1662419875 3.1808361782 
2.9473291268 2.9619233175 2.9765175082 2.991111699 3.0057058897 3.0203000804 3.0348942711 3.0494884618 3.0640826525 
3.0786768432 3.0932710339 3.1078652246 3.1224594153 3.137053606 3.1516477967 3.1662419875 3.1808361782 2.9473291268 
2.9619233175 2.9765175082 2.991111699 3.0057058897 3.0203000804 3.0348942711 3.0494884618 3.0640826525 3.0786768432 
3.0932710339 3.1078652246 3.1224594153 3.137053606 3.1516477967 3.1662419875 3.1808361782 2.9473291268 2.9619233175 
2.9765175082 2.991111699 3.0057058897 3.0203000804 3.0348942711 3.0494884618 3.0640826525 3.0786768432 3.0932710339 
3.1078652246 3.1224594153 3.137053606 3.1516477967 3.1662419875 3.1808361782 2.9473291268 2.9619233175 2.9765175082 
2.991111699 3.0057058897 3.0203000804 3.0348942711 3.0494884618 3.0640826525 3.0786768432 3.0932710339 3.1078652246 
3.1224594153 3.137053606 3.1516477967 3.1662419875 3.1808361782 2.9473291268 2.9619233175 2.9765175082 2.991111699 
3.0057058897 3.0203000804 3.0348942711 3.0494884618 3.0640826525 3.0786768432 3.0932710339 3.1078652246 3.1224594153 
3.137053606 3.1516477967 3.1662419875 3.1808361782 2.9473291268 2.9619233175 2.9765175082 2.991111699 3.0057058897 
3.0203000804 3.0348942711 3.0494884618 3.0640826525 3.0786768432 3.0932710339 3.1078652246 3.1224594153 3.137053606 
3.1516477967 3.1662419875 3.1662419875 3.1516477967 3.137053606 3.1224594153 3.1078652246 3.0932710339 3.0786768432 
3.0640826525 3.0640826525 3.0640826525 3.0786768432 3.0786768432 3.0786768432 3.0640826525 3.0494884618 3.0348942711 
3.0348942711 3.0348942711 3.0348942711 3.0494884618 3.0640826525 3.0786768432 3.0932710339 3.1078652246 3.1224594153 
3.137053606 2.9473291268 2.9473291268 2.9619233175 2.9619233175 2.9765175082 2.9765175082 2.991111699 2.991111699 
3.0057058897 3.0057058897 3.0203000804 3.0203000804 3.0348942711 3.0348942711 3.0494884618 3.0494884618 3.0640826525 
3.0640826525 3.0786768432 3.0786768432 3.0932710339 3.0932710339 3.1078652246 3.1078652246 3.1224594153 3.1224594153 
3.137053606 3.137053606 3.1516477967 2.9473291268 2.9619233175 2.9765175082 2.991111699 3.0057058897 3.0203000804 
3.0348942711 3.0494884618 3.0640826525 3.0786768432 3.0932710339 3.1078652246 3.1224594153 3.137053606 3.1516477967 
2.9473291268 2.9619233175 2.9765175082 2.991111699 3.0057058897 3.0203000804 3.0348942711 3.0494884618 3.0640826525 
3.0786768432 3.0932710339 3.1078652246 3.1224594153 3.137053606 3.1516477967 3.1662419875 2.9473291268 2.9619233175 