# vtk DataFile Version 4.2
vtk output
ASCII
DATASET POLYDATA
POINTS 6559 float
2467.57 -3159.16 5800 2493.84 -3166.83 5800 2511.41 -3159.16 5800 
2459.45 -3146.16 5800 2464.84 -3157.86 5800 2522.84 -3154.09 5800 
2540.74 -3146.15 5800 2453.84 -3133.16 5800 2551.85 -3141.23 5800 
2570.07 -3133.15 5800 2448.22 -3120.16 5800 2580.85 -3128.38 5800 
2599.4 -3120.15 5800 2442.61 -3107.15 5800 2609.85 -3115.52 5800 
2628.73 -3107.15 5800 2437 -3094.15 5800 2638.85 -3102.66 5800 
2658.06 -3094.15 5800 2431.38 -3081.15 5800 2435.85 -3091.49 5800 
2667.85 -3089.81 5800 2687.39 -3081.14 5800 2425.77 -3068.15 5800 
2696.86 -3076.95 5800 2716.72 -3068.14 5800 2420.16 -3055.15 5800 
2725.86 -3064.09 5800 2746.05 -3055.14 5800 2414.54 -3042.15 5800 
2754.86 -3051.24 5800 2775.38 -3042.14 5800 2408.93 -3029.15 5800 
2783.86 -3038.38 5800 2804.71 -3029.14 5800 2403.32 -3016.15 5800 
2406.85 -3024.33 5800 2812.86 -3025.27 5800 2820.96 -3016.13 5800 
2397.7 -3003.15 5800 2827.09 -3003.13 5800 2392.09 -2990.15 5800 
2833.22 -2990.13 5800 2386.48 -2977.15 5800 2839.36 -2977.13 5800 
2380.86 -2964.15 5800 2841.87 -2971.81 5800 2845.49 -2964.13 5800 
2375.25 -2951.15 5800 2377.85 -2957.18 5800 2851.62 -2951.13 5800 
2369.64 -2938.14 5800 2857.76 -2938.13 5800 2364.02 -2925.14 5800 
2863.89 -2925.13 5800 2358.41 -2912.14 5800 2870.02 -2912.13 5800 
2352.8 -2899.14 5800 2870.88 -2910.32 5800 2876.16 -2899.12 5800 
2347.18 -2886.14 5800 2348.86 -2890.02 5800 2882.29 -2886.12 5800 
2341.57 -2873.14 5800 2888.42 -2873.12 5800 2335.96 -2860.14 5800 
2894.56 -2860.12 5800 2330.34 -2847.14 5800 2899.88 -2848.83 5800 
2900.69 -2847.12 5800 2324.73 -2834.14 5800 2906.82 -2834.12 5800 
2319.11 -2821.14 5800 2319.86 -2822.87 5800 2912.96 -2821.12 5800 
2313.5 -2808.14 5800 2919.09 -2808.12 5800 2302.95 -2795.14 5800 
2925.22 -2795.11 5800 2284.55 -2782.14 5800 2290.86 -2786.59 5800 
2928.89 -2787.35 5800 2931.35 -2782.11 5800 2266.16 -2769.13 5800 
2937.49 -2769.11 5800 2247.76 -2756.13 5800 2261.87 -2766.1 5800 
2943.62 -2756.11 5800 2229.36 -2743.13 5800 2232.87 -2745.61 5800 
2949.75 -2743.11 5800 2210.96 -2730.13 5800 2955.89 -2730.11 5800 
2192.34 -2717.13 5800 2203.87 -2725.12 5800 2957.89 -2725.87 5800 
2961.78 -2717.11 5800 2172.45 -2704.13 5800 2174.87 -2705.58 5800 
2966.89 -2704.11 5800 2150.71 -2691.13 5800 2972 -2691.1 5800 
2128.97 -2678.13 5800 2145.87 -2688.24 5800 2977.12 -2678.1 5800 
2107.23 -2665.13 5800 2116.87 -2670.9 5800 2982.23 -2665.1 5800 
2085.49 -2652.13 5800 2087.87 -2653.55 5800 2986.9 -2653.22 5800 
2987.34 -2652.1 5800 2063.75 -2639.13 5800 2992.45 -2639.1 5800 
2042.01 -2626.13 5800 2058.87 -2636.21 5800 2997.56 -2626.1 5800 
2020.27 -2613.13 5800 2029.87 -2618.87 5800 3002.67 -2613.1 5800 
1999.72 -2600.13 5800 2000.87 -2601.53 5800 3007.78 -2600.1 5800 
1992.33 -2587.13 5800 3012.89 -2587.09 5800 1988.13 -2574.13 5800 
3015.91 -2579.44 5800 3018.01 -2574.09 5800 1987.16 -2561.13 5800 
3023.12 -2561.09 5800 1987.37 -2548.13 5800 3029.04 -2548.09 5800 
1987.58 -2535.13 5800 3038.83 -2535.09 5800 1987.8 -2522.13 5800 
3044.91 -2529.2 5800 3052.24 -2522.09 5800 1988.01 -2509.12 5800 
3065.65 -2509.09 5800 1988.22 -2496.12 5800 3073.91 -2501.08 5800 
3079.07 -2496.09 5800 1988.44 -2483.12 5800 3092.48 -2483.08 5800 
1988.65 -2470.12 5800 3102.92 -2472.96 5800 3105.89 -2470.08 5800 
1988.86 -2457.12 5800 3119.3 -2457.08 5800 1989.08 -2444.12 5800 
3131.92 -2444.85 5800 3132.71 -2444.08 5800 1989.29 -2431.12 5800 
3146.12 -2431.08 5800 1989.5 -2418.12 5800 3159.53 -2418.08 5800 
1989.72 -2405.12 5800 3160.92 -2416.73 5800 3172.94 -2405.08 5800 
1989.93 -2392.12 5800 3186.35 -2392.07 5800 1990.14 -2379.11 5800 
3189.93 -2388.61 5800 3199.77 -2379.07 5800 1990.36 -2366.11 5800 
3213.18 -2366.07 5800 1990.57 -2353.11 5800 3218.93 -2360.5 5800 
3224.14 -2353.07 5800 1990.78 -2340.11 5800 3229.53 -2340.07 5800 
1991 -2327.11 5800 3231.49 -2327.07 5800 1991.21 -2314.11 5800 
3233.45 -2314.07 5800 1991.42 -2301.11 5800 3235.4 -2301.07 5800 
1991.64 -2288.11 5800 3237.36 -2288.06 5800 1991.85 -2275.11 5800 
3239.32 -2275.06 5800 1992.06 -2262.11 5800 3241.27 -2262.06 5800 
1992.28 -2249.1 5800 3243.23 -2249.06 5800 1992.49 -2236.1 5800 
3245.19 -2236.06 5800 1992.7 -2223.1 5800 3247.14 -2223.06 5800 
1992.93 -2210.1 5800 3247.94 -2217.77 5800 3249.1 -2210.06 5800 
1993.17 -2197.1 5800 3251.06 -2197.06 5800 1993.42 -2184.1 5800 
3253.02 -2184.06 5800 1993.66 -2171.1 5800 3254.97 -2171.05 5800 
1993.96 -2158.1 5800 3256.93 -2158.05 5800 1994.29 -2145.1 5800 
3258.89 -2145.05 5800 1994.62 -2132.1 5800 3260.84 -2132.05 5800 
1994.95 -2119.09 5800 3262.8 -2119.05 5800 1995.28 -2106.09 5800 
3264.76 -2106.05 5800 1995.61 -2093.09 5800 3266.71 -2093.05 5800 
1995.94 -2080.09 5800 3268.67 -2080.05 5800 1996.27 -2067.09 5800 
3270.63 -2067.05 5800 1996.6 -2054.09 5800 3272.59 -2054.05 5800 
1993.61 -2041.09 5800 3274.54 -2041.04 5800 1990.48 -2028.09 5800 
3276.5 -2028.04 5800 1987.35 -2015.09 5800 3276.96 -2025 5800 
3278.1 -2015.04 5800 1984.22 -2002.09 5800 3279.56 -2002.04 5800 
1981.09 -1989.08 5800 3280.99 -1989.04 5800 1977.95 -1976.08 5800 
3282.4 -1976.04 5800 1974.82 -1963.08 5800 3283.78 -1963.04 5800 
1971.69 -1950.08 5800 1971.92 -1951.03 5800 3285.13 -1950.04 5800 
1968.56 -1937.08 5800 3286.46 -1937.04 5800 1965.43 -1924.08 5800 
3287.48 -1924.03 5800 1962.3 -1911.08 5800 3288.44 -1911.03 5800 
1959.16 -1898.08 5800 3289.38 -1898.03 5800 1956.03 -1885.08 5800 
3290.29 -1885.03 5800 1952.9 -1872.08 5800 3291.19 -1872.03 5800 
1949.77 -1859.08 5800 3292.07 -1859.03 5800 1946.64 -1846.07 5800 
3292.93 -1846.03 5800 1943.51 -1833.07 5800 3293.77 -1833.03 5800 
1940.37 -1820.07 5800 1942.93 -1830.67 5800 3294.6 -1820.03 5800 
1937.24 -1807.07 5800 3295.4 -1807.03 5800 1935.22 -1794.07 5800 
3296.19 -1794.02 5800 1934.77 -1781.07 5800 3296.97 -1781.02 5800 
1934.48 -1768.07 5800 3297.73 -1768.02 5800 1937.18 -1755.07 5800 
3298.47 -1755.02 5800 1940.53 -1742.07 5800 3299.19 -1742.02 5800 
1942.93 -1732.72 5800 1943.88 -1729.07 5800 3299.85 -1729.02 5800 
1947.23 -1716.06 5800 3300.51 -1716.02 5800 1950.57 -1703.06 5800 
3301.16 -1703.02 5800 1953.92 -1690.06 5800 3301.82 -1690.02 5800 
1957.27 -1677.06 5800 3302.47 -1677.02 5800 1960.62 -1664.06 5800 
3303.13 -1664.01 5800 1963.97 -1651.06 5800 3303.79 -1651.01 5800 
1967.32 -1638.06 5800 3304.44 -1638.01 5800 1970.67 -1625.06 5800 
3305.1 -1625.01 5800 1971.94 -1620.12 5800 1974.11 -1612.06 5800 
3304.95 -1612.01 5800 1977.58 -1599.05 5800 3298.72 -1599.01 5800 
1981.04 -1586.05 5800 3292.93 -1586.01 5800 1984.48 -1573.05 5800 
3289.22 -1573.01 5800 1987.9 -1560.05 5800 3287.21 -1560.01 5800 
1991.31 -1547.05 5800 3287.23 -1547.01 5800 1994.69 -1534.05 5800 
3287.19 -1534 5800 1998.08 -1521.05 5800 3287.15 -1521 5800 
2000.55 -1508.05 5800 3287.12 -1508 5800 2000.95 -1501.2 5800 
2001.33 -1495.05 5800 3287.1 -1495 5800 2002.65 -1482.04 5800 
3287.07 -1482 5800 2003.9 -1469.04 5800 3287.05 -1469 5800 
2005.11 -1456.04 5800 3287.03 -1456 5800 2006.34 -1443.04 5800 
3287.2 -1443 5800 2007.6 -1430.04 5800 3287.67 -1430 5800 
2008.85 -1417.04 5800 3288.14 -1417 5800 2010.11 -1404.04 5800 
3288.61 -1403.99 5800 2011.37 -1391.04 5800 3289.08 -1390.99 5800 
2012.62 -1378.04 5800 3289.55 -1377.99 5800 2013.88 -1365.04 5800 
3290.03 -1364.99 5800 2015.14 -1352.03 5800 3290.5 -1351.99 5800 
2016.06 -1339.03 5800 3290.97 -1338.99 5800 2016.75 -1326.03 5800 
3291.44 -1325.99 5800 2017.44 -1313.03 5800 3291.91 -1312.99 5800 
2018.13 -1300.03 5800 3292.38 -1299.99 5800 2018.82 -1287.03 5800 
3292.86 -1286.99 5800 2019.51 -1274.03 5800 3293.33 -1273.98 5800 
2020.2 -1261.03 5800 3293.8 -1260.98 5800 2020.89 -1248.03 5800 
3294.27 -1247.98 5800 2021.57 -1235.03 5800 3294.74 -1234.98 5800 
2022.26 -1222.02 5800 3295.21 -1221.98 5800 2022.95 -1209.02 5800 
3295.69 -1208.98 5800 2023.64 -1196.02 5800 3296.16 -1195.98 5800 
2024.33 -1183.02 5800 3296.69 -1182.98 5800 2025.02 -1170.02 5800 
3297.24 -1169.98 5800 2025.71 -1157.02 5800 3297.79 -1156.98 5800 
2026.4 -1144.02 5800 3298.35 -1143.97 5800 2026.01 -1131.02 5800 
3298.91 -1130.97 5800 2024.3 -1118.02 5800 3299.5 -1117.97 5800 
2023.09 -1105.02 5800 3300.06 -1104.97 5800 2021.83 -1092.01 5800 
3300.22 -1091.97 5800 2022.3 -1079.01 5800 3300.37 -1078.97 5800 
2025.46 -1066.01 5800 3300.53 -1065.97 5800 2028.3 -1053.01 5800 
3300.68 -1052.97 5800 2029.99 -1045.56 5800 2030.83 -1040.01 5800 
3300.83 -1039.97 5800 2032.79 -1027.01 5800 3300.97 -1026.97 5800 
2034.76 -1014.01 5800 3301.12 -1013.96 5800 2036.73 -1001.01 5800 
3301.47 -1000.96 5800 2038.69 -988.006 5800 2544.57 -987.988 5800 
2552.01 -992.514 5800 2581.01 -998.512 5800 2610.01 -995.182 5800 
2639.01 -992.728 5800 2668.02 -990.273 5800 2695.07 -987.983 5800 
3301.82 -987.962 5800 2040.66 -975.005 5800 2526.03 -974.988 5800 
2697.02 -987.818 5800 2726.02 -985.425 5800 2755.02 -983.583 5800 
2761.23 -974.98 5800 3302.18 -974.961 5800 2042.63 -962.004 5800 
2506.77 -961.988 5800 2523.01 -972.362 5800 2768.55 -961.979 5800 
3301.03 -961.96 5800 2044.54 -949.003 5800 2485.92 -948.987 5800 
2494.01 -953.923 5800 2774.64 -948.977 5800 3298.42 -948.959 5800 
2046.33 -936.001 5800 2463.83 -935.987 5800 2465.01 -936.683 5800 
2780.74 -935.976 5800 3296.37 -935.958 5800 2048.17 -923 5800 
2441.74 -922.987 5800 2784.02 -929.225 5800 2787.34 -922.975 5800 
3293.99 -922.957 5800 2050.07 -909.999 5800 2419.66 -909.987 5800 
2436.01 -919.614 5800 2793.98 -909.974 5800 3291.23 -909.956 5800 
2052.03 -896.998 5800 2403.22 -896.986 5800 2407.01 -902.546 5800 
2800.32 -896.972 5800 3288.48 -896.956 5800 2054.05 -883.997 5800 
2395.91 -883.985 5800 2806.36 -883.971 5800 3285.72 -883.955 5800 
2056.12 -870.996 5800 2390.51 -870.985 5800 2812.36 -870.97 5800 
3282.96 -870.954 5800 2058.28 -857.995 5800 2385.11 -857.984 5800 
2813.03 -869.583 5800 2819.21 -857.969 5800 3280.2 -857.953 5800 
2059.01 -853.571 5800 2060.27 -844.994 5800 2379.7 -844.983 5800 
[...]
POINT_DATA 6559
SCALARS Pressure double
LOOKUP_TABLE default
3.0932710339 3.0932710339 3.0932710339 3.0932710339 3.0932710339 3.0932710339 3.0932710339 3.0932710339 3.0932710339 
3.0932710339 3.0932710339 3.0932710339 3.0932710339 3.0932710339 3.0932710339 3.0932710339 3.0932710339 3.0932710339 
3.0932710339 3.0932710339 3.0932710339 3.0932710339 3.0932710339 3.0932710339 3.0932710339 3.0932710339 3.0932710339 
3.0932710339 3.0932710339 3.0932710339 3.0932710339 3.0932710339 3.0932710339 3.0932710339 3.0932710339 3.0932710339 
3.0932710339 3.0932710339 3.0932710339 3.0932710339 3.0932710339 3.0932710339 3.0932710339 3.0932710339 3.0932710339 
3.0932710339 3.0932710339 3.0932710339 3.0932710339 3.0932710339 3.0932710339 3.0932710339 3.0932710339 3.0932710339 
3.0932710339 3.0932710339 3.0932710339 3.0932710339 3.0932710339 3.0932710339 3.0932710339 3.0932710339 3.0932710339 
3.0932710339 3.0932710339 3.0932710339 3.0932710339 3.0932710339 3.0932710339 3.0932710339 3.0932710339 3.0932710339 
3.0932710339 3.0932710339 3.0932710339 3.0932710339 3.0932710339 3.0932710339 3.0932710339 3.0932710339 3.0932710339 
3.0932710339 3.0932710339 3.0932710339 3.0932710339 3.0932710339 3.0932710339 3.0932710339 3.0932710339 3.0932710339 
3.0932710339 3.0932710339 3.0932710339 3.0932710339 3.0932710339 3.0932710339 3.0932710339 3.0932710339 3.0932710339 
3.0932710339 3.0932710339 3.0932710339 3.0932710339 3.0932710339 3.0932710339 3.0932710339 3.0932710339 3.0932710339 
3.0932710339 3.0932710339 3.0932710339 3.0932710339 3.0932710339 3.0932710339 3.0932710339 3.0932710339 3.0932710339 
3.0932710339 3.0932710339 3.0932710339 3.0932710339 3.0932710339 3.0932710339 3.0932710339 3.0932710339 3.0932710339 
3.0932710339 3.0932710339 3.0932710339 3.0932710339 3.0932710339 3.0932710339 3.0932710339 3.0932710339 3.0932710339 
3.0932710339 3.0932710339 3.0932710339 3.0932710339 3.0932710339 3.0932710339 3.0932710339 3.0932710339 3.0932710339 
3.0932710339 3.0932710339 3.0932710339 3.0932710339 3.0932710339 3.0932710339 3.0932710339 3.0932710339 3.0932710339 
3.0932710339 3.0932710339 3.0932710339 3.0932710339 3.0932710339 3.0932710339 3.0932710339 3.0932710339 3.0932710339 
3.0932710339 3.0932710339 3.0932710339 3.0932710339 3.0932710339 3.0932710339 3.0932710339 3.0932710339 3.0932710339 
3.0932710339 3.0932710339 3.0932710339 3.0932710339 3.0932710339 3.0932710339 3.0932710339 3.0932710339 3.0932710339 
3.0932710339 3.0932710339 3.0932710339 3.0932710339 3.0932710339 3.0932710339 3.0932710339 3.0932710339 3.0932710339 
3.0932710339 3.0932710339 3.0932710339 3.0932710339 3.0932710339 3.0932710339 3.0932710339 3.0932710339 3.0932710339 
3.0932710339 3.0932710339 3.0932710339 3.0932710339 3.0932710339 3.0932710339 3.0932710339 3.0932710339 3.0932710339 
3.0932710339 3.0932710339 3.0932710339 3.0932710339 3.0932710339 3.0932710339 3.0932710339 3.0932710339 3.0932710339 
3.0932710339 3.0932710339 3.0932710339 3.0932710339 3.0932710339 3.0932710339 3.0932710339 3.0932710339 3.0932710339 
3.0932710339 3.0932710339 3.0932710339 3.0932710339 3.0932710339 3.0932710339 3.0932710339 3.0932710339 3.0932710339 
3.0932710339 3.0932710339 3.0932710339 3.0932710339 3.0932710339 3.0932710339 3.0932710339 3.0932710339 3.0932710339 
3.0932710339 3.0932710339 3.0932710339 3.0932710339 3.0932710339 3.0932710339 3.0932710339 3.0932710339 3.0932710339 
3.0932710339 3.0932710339 3.0932710339 3.0932710339 3.0932710339 3.0932710339 3.0932710339 3.0932710339 3.0932710339 
3.0932710339 3.0932710339 3.0932710339 3.0932710339 3.0932710339 3.0932710339 3.0932710339 3.0932710339 3.0932710339 
3.0932710339 3.0932710339 3.0932710339 3.0932710339 3.0932710339 3.0932710339 3.0932710339 3.0932710339 3.0932710339 
3.0932710339 3.0932710339 3.0932710339 3.0932710339 3.0932710339 3.0932710339 3.0932710339 3.0932710339 3.0932710339 
3.0932710339 3.0932710339 3.0932710339 3.0932710339 3.0932710339 3.0932710339 3.0932710339 3.0932710339 3.0932710339 
3.0932710339 3.0932710339 3.0932710339 3.0932710339 3.0932710339 3.0932710339 3.0932710339 3.0932710339 3.0932710339 
3.0932710339 3.0932710339 3.0932710339 3.0932710339 3.0932710339 3.0932710339 3.0932710339 3.0932710339 3.0932710339 
3.0932710339 3.0932710339 3.0932710339 3.0932710339 3.0932710339 3.0932710339 3.0932710339 3.0932710339 3.0932710339 
3.0932710339 3.0932710339 3.0932710339 3.0932710339 3.0932710339 3.0932710339 3.0932710339 3.0932710339 3.0932710339 
3.0932710339 3.0932710339 3.0932710339 3.0932710339 3.0932710339 3.0932710339 3.0932710339 3.0932710339 3.0932710339 
3.0932710339 3.0932710339 3.0932710339 3.0932710339 3.0932710339 3.0932710339 3.0932710339 3.0932710339 3.0932710339 
3.0932710339 3.0932710339 3.0932710339 3.0932710339 3.0932710339 3.0932710339 3.0932710339 3.0932710339 3.0932710339 
3.0932710339 3.0932710339 3.0932710339 3.0932710339 3.0932710339 3.0932710339 3.0932710339 3.0932710339 3.0932710339 
3.0932710339 3.0932710339 3.0932710339 3.0932710339 3.0932710339 3.0932710339 3.0932710339 3.0932710339 3.0932710339 
3.0932710339 3.0932710339 3.0932710339 3.0932710339 3.0932710339 3.0932710339 3.0932710339 3.0932710339 3.1078652246 
3.1078652246 3.1078652246 3.1078652246 3.1078652246 3.1078652246 3.1078652246 3.0932710339 3.0932710339 3.1078652246 
3.1078652246 3.1078652246 3.1078652246 3.1078652246 3.0932710339 3.0932710339 3.1078652246 3.1078652246 3.1078652246 
3.0932710339 3.0932710339 3.1078652246 3.1078652246 3.1078652246 3.0932710339 3.0932710339 3.1078652246 3.1078652246 
3.1078652246 3.0932710339 3.0932710339 3.1078652246 3.1078652246 3.1078652246 3.0932710339 3.0932710339 3.1078652246 
3.1078652246 3.1078652246 3.0932710339 3.0932710339 3.1078652246 3.1078652246 3.1078652246 3.0932710339 3.0932710339 
3.1078652246 3.1078652246 3.0932710339 3.0932710339 3.1078652246 3.1078652246 3.0932710339 3.0932710339 3.1078652246 
3.1078652246 3.1078652246 3.0932710339 3.0932710339 3.0932710339 3.1078652246 3.1078652246 3.0932710339 3.0932710339 
3.1078652246 3.1078652246 3.1078652246 3.0932710339 3.0932710339 3.0932710339 3.1078652246 3.1078652246 3.0932710339 
3.0932710339 3.1078652246 3.1078652246 3.1078652246 3.0932710339 3.0932710339 3.1078652246 3.1078652246 3.1078652246 
3.0932710339 3.0932710339 3.1078652246 3.1078652246 3.1078652246 3.0932710339 3.0932710339 3.1078652246 3.1078652246 
3.0932710339 3.0932710339 3.1078652246 3.1078652246 3.1078652246 3.0932710339 3.0932710339 3.1078652246 3.1078652246 
3.0932710339 3.0932710339 3.1078652246 3.1078652246 3.1078652246 3.0932710339 3.0932710339 3.1078652246 3.1078652246 
3.0932710339 3.0932710339 3.0932710339 3.1078652246 3.1078652246 3.0932710339 3.0932710339 3.1078652246 3.1078652246 
3.0932710339 3.0932710339 3.1078652246 3.1078652246 3.0932710339 3.0932710339 3.1078652246 3.1078652246 3.1078652246 
3.1078652246 3.0932710339 3.0932710339 3.1078652246 3.1224594153 3.1224594153 3.1224594153 3.1078652246 3.0932710339 
3.0932710339 3.1078652246 3.1224594153 3.1224594153 3.1224594153 3.1078652246 3.0932710339 3.0932710339 3.1078652246 
3.1224594153 3.1224594153 3.1224594153 3.1224594153 3.1078652246 3.0932710339 3.0932710339 3.0932710339 3.1078652246 
3.1224594153 3.1224594153 3.1224594153 3.1224594153 3.1078652246 3.0932710339 3.0932710339 3.1078652246 3.1224594153 
3.1224594153 3.1224594153 3.1224594153 3.1078652246 3.1078652246 3.0932710339 3.0932710339 3.1078652246 3.1224594153 
3.1224594153 3.1224594153 3.1078652246 3.0932710339 3.0932710339 3.1078652246 3.1224594153 3.1224594153 3.1224594153 
3.1078652246 3.0932710339 3.0932710339 3.0932710339 3.1078652246 3.1224594153 3.1224594153 3.1224594153 3.1078652246 
3.0932710339 3.0932710339 3.1078652246 3.1078652246 3.1224594153 3.1224594153 3.1078652246 3.0932710339 3.0932710339 
3.1078652246 3.1224594153 3.1224594153 3.1224594153 3.1078652246 3.1078652246 3.0932710339 3.0932710339 3.1078652246 
3.1224594153 3.1224594153 3.1078652246 3.0932710339 3.0932710339 3.1078652246 3.1224594153 3.1224594153 3.1224594153 
3.1224594153 3.1078652246 3.0932710339 3.0786768432 3.0786768432 3.0786768432 3.0932710339 3.1078652246 3.1224594153 
3.1224594153 3.1078652246 3.0932710339 3.0786768432 3.0786768432 3.0786768432 3.0786768432 3.0932710339 3.1078652246 
3.1224594153 3.1224594153 3.1078652246 3.0932710339 3.0786768432 3.0786768432 3.0786768432 3.0786768432 3.0786768432 
3.0786768432 3.0786768432 3.0786768432 3.0786768432 3.0786768432 3.0786768432 3.0786768432 3.0932710339 3.1078652246 
3.1224594153 3.1224594153 3.1224594153 3.1078652246 3.1078652246 3.0932710339 3.0786768432 3.0786768432 3.0786768432 
3.0786768432 3.0786768432 3.0786768432 3.0786768432 3.0786768432 3.0932710339 3.1078652246 3.1078652246 3.1224594153 
3.1224594153 3.1224594153 3.1078652246 3.0932710339 3.0786768432 3.0786768432 3.0786768432 3.0786768432 3.0786768432 
3.0786768432 3.0932710339 3.0932710339 3.1078652246 3.1224594153 3.137053606 3.137053606 3.137053606 3.137053606 
3.1224594153 3.1078652246 3.0932710339 3.0786768432 3.0786768432 3.0786768432 3.0786768432 3.0786768432 3.0786768432 
3.0932710339 3.1078652246 3.1224594153 3.137053606 3.137053606 3.137053606 3.137053606 3.1224594153 3.1078652246 
3.0932710339 3.0786768432 3.0786768432 3.0786768432 3.0786768432 3.0786768432 3.0786768432 3.0786768432 3.0932710339 
3.1078652246 3.1224594153 3.137053606 3.137053606 3.137053606 3.137053606 3.1224594153 3.1224594153 3.1078652246 
3.0932710339 3.0786768432 3.0786768432 3.0786768432 3.0786768432 3.0932710339 3.1078652246 3.1224594153 3.1224594153 
3.137053606 3.137053606 3.1224594153 3.1078652246 3.0932710339 3.0786768432 3.0786768432 3.0786768432 3.0786768432 
3.0786768432 3.0786768432 3.0932710339 3.1078652246 3.1224594153 3.137053606 3.137053606 3.137053606 3.137053606 
3.1224594153 3.1078652246 3.1078652246 3.0932710339 3.0786768432 3.0786768432 3.0786768432 3.0786768432 3.0786768432 
3.0786768432 3.0932710339 3.1078652246 3.1224594153 3.137053606 3.137053606 3.1224594153 3.1078652246 3.0932710339 
3.0786768432 3.0786768432 3.0786768432 3.0786768432 3.0786768432 3.0786768432 3.0932710339 3.1078652246 3.1224594153 
3.137053606 3.137053606 3.137053606 3.1224594153 3.1224594153 3.1078652246 3.0932710339 3.0786768432 3.0786768432 
3.0786768432 3.0786768432 3.0786768432 3.0786768432 3.0932710339 3.1078652246 3.1224594153 3.137053606 3.137053606 
3.1224594153 3.1078652246 3.0932710339 3.0786768432 3.0786768432 3.0786768432 3.0786768432 3.0786768432 3.0932710339 
3.1078652246 3.1224594153 3.1224594153 3.137053606 3.137053606 3.137053606 3.1224594153 3.1078652246 3.0932710339 
3.0786768432 3.0786768432 3.0786768432 3.0786768432 3.0786768432 3.0932710339 3.1078652246 3.1224594153 3.137053606 
3.137053606 3.137053606 3.1224594153 3.1078652246 3.0932710339 3.0932710339 3.0786768432 3.0786768432 3.0786768432 
3.0786768432 3.0786768432 3.0932710339 3.1078652246 3.1224594153 3.137053606 3.137053606 3.1224594153 3.1224594153 
3.1078652246 3.0932710339 3.0786768432 3.0786768432 3.0786768432 3.0786768432 3.0786768432 3.0932710339 3.1078652246 
3.1224594153 3.137053606 3.1516477967 3.1516477967 3.1516477967 3.1516477967 3.137053606 3.137053606 3.1224594153 
3.1078652246 3.1078652246 3.0932710339 3.0786768432 3.0786768432 3.0786768432 3.0786768432 3.0786768432 3.0932710339 
3.1078652246 3.1224594153 3.137053606 3.137053606 3.1516477967 3.1516477967 3.1516477967 3.1516477967 3.137053606 
3.1224594153 3.1078652246 3.0932710339 3.0786768432 3.0786768432 3.0786768432 3.0786768432 3.0786768432 3.0932710339 
3.1078652246 3.1078652246 3.1224594153 3.137053606 3.1516477967 3.1516477967 3.1516477967 3.137053606 3.1224594153 
3.1078652246 3.0932710339 3.0786768432 3.0786768432 3.0786768432 3.0786768432 3.0786768432 3.0786768432 3.0932710339 
3.1078652246 3.1224594153 3.1224594153 3.137053606 3.1516477967 3.1516477967 3.1516477967 3.137053606 3.1224594153 
3.1078652246 3.0932710339 3.0932710339 3.0786768432 3.0786768432 3.0786768432 3.0786768432 3.0932710339 3.1078652246 
3.1224594153 3.137053606 3.137053606 3.1516477967 3.1516477967 3.1516477967 3.1516477967 3.137053606 3.1224594153 
3.1078652246 3.0932710339 3.0786768432 3.0786768432 3.0786768432 3.0786768432 3.0932710339 3.1078652246 3.1224594153 
3.137053606 3.1516477967 3.1516477967 3.137053606 3.137053606 3.1224594153 3.1078652246 3.0932710339 3.0786768432 
3.0786768432 3.0786768432 3.0786768432 3.0786768432 3.0932710339 3.1078652246 3.1224594153 3.137053606 3.1516477967 
3.1516477967 3.1516477967 3.137053606 3.1224594153 3.1224594153 3.1078652246 3.0932710339 3.0786768432 3.0786768432 
3.0786768432 3.0640826525 3.0640826525 3.0640826525 3.0640826525 3.0640826525 3.0786768432 3.0932710339 3.1078652246 
3.1224594153 3.137053606 3.1516477967 3.1516477967 3.137053606 3.1224594153 3.1078652246 3.0932710339 3.0786768432 
3.0786768432 3.0786768432 3.0786768432 3.0786768432 3.0640826525 3.0640826525 3.0640826525 3.0640826525 3.0640826525 
3.0640826525 3.0786768432 3.0932710339 3.1078652246 3.1224594153 3.1224594153 3.137053606 3.137053606 3.1516477967 
3.1516477967 3.137053606 3.1224594153 3.1078652246 3.0932710339 3.0786768432 3.0786768432 3.0786768432 3.0786768432 
3.0640826525 3.0640826525 3.0640826525 3.0786768432 3.0932710339 3.1078652246 3.1224594153 3.137053606 3.1516477967 
3.1516477967 3.1516477967 3.1516477967 3.137053606 3.1224594153 3.1078652246 3.0932710339 3.0786768432 3.0786768432 
3.0786768432 3.0640826525 3.0640826525 3.0640826525 3.0786768432 3.0932710339 3.1078652246 3.1224594153 3.137053606 
3.1516477967 3.1662419875 3.1662419875 3.1662419875 3.1662419875 3.1662419875 3.1662419875 3.1516477967 3.137053606 
3.1224594153 3.1078652246 3.0932710339 3.0786768432 3.0786768432 3.0786768432 3.0640826525 3.0640826525 3.0640826525 
3.0786768432 3.0932710339 3.1078652246 3.1224594153 3.137053606 3.137053606 3.1516477967 3.1516477967 3.1662419875 
3.1662419875 3.1662419875 3.1516477967 3.137053606 3.1224594153 3.1078652246 3.0932710339 3.0786768432 3.0786768432 
3.0786768432 3.0786768432 3.0640826525 3.0640826525 3.0786768432 3.0932710339 3.1078652246 3.1224594153 3.137053606 
3.1516477967 3.1662419875 3.1662419875 3.1662419875 3.1516477967 3.137053606 3.1224594153 3.1078652246 3.0932710339 
3.0786768432 3.0786768432 3.0786768432 3.0786768432 3.0640826525 3.0640826525 3.0786768432 3.0932710339 3.1078652246 
3.1078652246 3.1224594153 3.137053606 3.1516477967 3.1516477967 3.1662419875 3.1662419875 3.1662419875 3.1516477967 
3.137053606 3.1224594153 3.1078652246 3.0932710339 3.0786768432 3.0786768432 3.0786768432 3.0640826525 3.0494884618 
3.0494884618 3.0494884618 3.0494884618 3.0640826525 3.0786768432 3.0786768432 3.0932710339 3.1078652246 3.1224594153 
3.1224594153 3.137053606 3.1516477967 3.1662419875 3.1662419875 3.1516477967 3.137053606 3.1224594153 3.1078652246 
3.0932710339 3.0786768432 3.0786768432 3.0786768432 3.0786768432 3.0786768432 3.0786768432 3.0786768432 3.0640826525 
3.0640826525 3.0494884618 3.0494884618 3.0494884618 3.0494884618 3.0640826525 3.0640826525 3.0786768432 3.0932710339 
3.1078652246 3.1224594153 3.137053606 3.137053606 3.1516477967 3.1662419875 3.1662419875 3.1662419875 3.1516477967 
3.137053606 3.1224594153 3.1078652246 3.0932710339 3.0786768432 3.0786768432 3.0786768432 3.0786768432 3.0786768432 
3.0786768432 3.0640826525 3.0494884618 3.0494884618 3.0494884618 3.0640826525 3.0786768432 3.0932710339 3.1078652246 
3.1224594153 3.137053606 3.1516477967 3.1662419875 3.1662419875 3.1662419875 3.1516477967 3.137053606 3.1224594153 
3.1224594153 3.1078652246 3.1078652246 3.0932710339 3.0932710339 3.0786768432 3.0640826525 3.0640826525 3.0640826525 
3.0640826525 3.0640826525 3.0786768432 3.0786768432 3.0786768432 3.0640826525 3.0494884618 3.0494884618 3.0494884618 
3.0640826525 3.0786768432 3.0932710339 3.1078652246 3.1224594153 3.137053606 3.1516477967 3.1516477967 3.1662419875 
3.1662419875 3.1516477967 3.137053606 3.1224594153 3.1078652246 3.0932710339 3.0786768432 3.0786768432 3.0640826525 
3.0640826525 3.0640826525 3.0786768432 3.0786768432 3.0640826525 3.0494884618 3.0348942711 3.0348942711 3.0348942711 
3.0348942711 3.0494884618 3.0640826525 3.0786768432 3.0932710339 3.1078652246 3.1224594153 3.137053606 3.1516477967 
3.1662419875 3.1662419875 2.9473291268 2.9473291268 2.9619233175 2.9619233175 2.9765175082 2.9765175082 2.991111699 
2.991111699 3.0057058897 3.0057058897 3.0203000804 3.0203000804 3.0348942711 3.0348942711 3.0494884618 3.0494884618 
3.0640826525 3.0640826525 3.0786768432 3.0786768432 3.0932710339 3.0932710339 3.1078652246 3.1078652246 3.1224594153 
3.1224594153 3.137053606 3.137053606 3.1516477967 3.1516477967 3.1662419875 3.1662419875 2.9473291268 2.9619233175 
2.9765175082 2.991111699 3.0057058897 3.0203000804 3.0348942711 3.0494884618 3.0640826525 3.0786768432 3.0932710339 
3.1078652246 3.1224594153 3.137053606 3.1516477967 3.1662419875 2.9473291268 2.9619233175 2.9765175082 2.991111699 
3.0057058897 3.0203000804 3.0348942711 3.0494884618 3.0640826525 3.0786768432 3.0932710339 3.1078652246 3.1224594153 
3.137053606 3.1516477967 3.1662419875 2.9473291268 2.9619233175 2.9765175082 2.991111699 3.0057058897 3.0203000804 
3.0348942711 3.0494884618 3.0640826525 3.0786768432 3.0932710339 3.1078652246 3.1224594153 3.137053606 3.1516477967 
3.1662419875 2.9473291268 2.9619233175 2.9765175082 2.991111699 3.0057058897 3.0203000804 3.0348942711 3.0494884618 
3.0640826525 3.0786768432 3.0932710339 3.1078652246 3.1224594153 3.137053606 3.1516477967 3.1662419875 2.9473291268 
2.9619233175 2.9765175082 2.991111699 3.0057058897 3.0203000804 3.0348942711 3.0494884618 3.0640826525 3.0786768432 
3.0932710339 3.1078652246 3.1224594153 3.137053606 3.1516477967 3.1662419875 2.9473291268 2.9619233175 2.9765175082 
2.991111699 3.0057058897 3.0203000804 3.0348942711 3.0494884618 3.0640826525 3.0786768432 3.0932710339 3.1078652246 
3.1224594153 3.137053606 3.1516477967 3.1662419875 3.1662419875 3.1516477967 3.137053606 3.1224594153 3.1078652246 
3.0932710339 3.0786768432 3.0640826525 3.0640826525 3.0640826525 3.0786768432 3.0786768432 3.0786768432 3.0640826525 
3.0494884618 3.0348942711 3.0348942711 3.0348942711 3.0494884618 3.0494884618 3.0640826525 3.0786768432 3.0932710339 
3.1078652246 3.1224594153 3.1224594153 3.137053606 3.137053606 2.9473291268 2.9473291268 2.9619233175 2.9619233175 
2.9765175082 2.9765175082 2.991111699 2.991111699 3.0057058897 3.0057058897 3.0203000804 3.0203000804 3.0348942711 
3.0348942711 3.0494884618 3.0494884618 3.0640826525 3.0640826525 3.0786768432 3.0786768432 3.0932710339 3.0932710339 
3.1078652246 3.1078652246 3.1224594153 3.1224594153 3.137053606 3.137053606 2.9473291268 2.9619233175 2.9765175082 
2.991111699 3.0057058897 3.0203000804 3.0348942711 3.0494884618 3.0640826525 3.0786768432 3.0932710339 3.1078652246 
3.1224594153 3.137053606 3.1516477967 2.9473291268 2.9619233175 2.9765175082 2.991111699 3.0057058897 3.0203000804 
3.0348942711 3.0494884618 3.0640826525 3.0786768432 3.0932710339 3.1078652246 3.1224594153 3.137053606 3.1516477967 
2.9473291268 2.9619233175 2.9765175082 2.991111699 3.0057058897 3.0203000804 3.0348942711 3.0494884618 3.0640826525 
3.0786768432 3.0932710339 3.1078652246 3.1224594153 3.137053606 3.1516477967 3.1662419875 2.9473291268 2.9619233175 
2.9765175082 2.991111699 3.0057058897 3.0203000804 3.0348942711 3.0494884618 3.0640826525 3.0786768432 3.0932710339 
3.1078652246 3.1224594153 3.137053606 3.1516477967 3.1662419875 2.9473291268 2.9619233175 2.9765175082 2.991111699 
3.0057058897 3.0203000804 3.0348942711 3.0494884618 3.0640826525 3.0786768432 3.0932710339 3.1078652246 3.1224594153 
3.137053606 3.1516477967 3.1662419875 2.9473291268 2.9619233175 2.9765175082 2.991111699 3.0057058897 3.0203000804 
3.0348942711 3.0494884618 3.0640826525 3.0786768432 3.0932710339 3.1078652246 3.1224594153 3.137053606 3.1516477967 
3.1662419875 2.9473291268 2.9619233175 2.9765175082 2.991111699 3.0057058897 3.0203000804 3.0348942711 3.0494884618 