# vtk DataFile Version 4.2
vtk output
ASCII
DATASET POLYDATA
POINTS 7370 float
1553.73 -3247.15 0 1553.85 -3247.35 0 1590.85 -3261.43 0 
1620.4 -3247.15 0 1543.76 -3230.15 0 1627.85 -3243.54 0 
1655.58 -3230.15 0 1533.78 -3213.15 0 1664.86 -3225.66 0 
1690.76 -3213.14 0 1523.81 -3196.15 0 1701.86 -3207.78 0 
1725.94 -3196.14 0 1513.83 -3179.15 0 1516.85 -3184.3 0 
1738.86 -3189.9 0 1761.12 -3179.14 0 1503.86 -3162.15 0 
1775.86 -3172.02 0 1796.31 -3162.14 0 1493.88 -3145.14 0 
1812.86 -3154.14 0 1831.49 -3145.14 0 1483.9 -3128.14 0 
1849.87 -3136.25 0 1866.67 -3128.13 0 1473.93 -3111.14 0 
1479.86 -3121.24 0 1886.87 -3118.37 0 1901.85 -3111.13 0 
1463.95 -3094.14 0 1923.87 -3100.49 0 1937.03 -3094.13 0 
1453.98 -3077.14 0 1960.87 -3082.61 0 1972.22 -3077.13 0 
1444 -3060.14 0 1997.87 -3064.73 0 2007.4 -3060.13 0 
1434.03 -3043.14 0 1442.86 -3058.19 0 2034.88 -3051.99 0 
2071.88 -3046.57 0 2096.63 -3043.12 0 1424.05 -3026.14 0 
2108.88 -3041.42 0 2145.88 -3036.27 0 2182.88 -3031.12 0 
2218.83 -3026.12 0 1414.08 -3009.14 0 2219.88 -3025.97 0 
2256.88 -3020.82 0 2293.88 -3015.67 0 2298.46 -3009.11 0 
1404.1 -2992.14 0 1405.86 -2995.14 0 2305.23 -2992.11 0 
1394.13 -2975.14 0 2308.72 -2975.11 0 1384.15 -2958.14 0 
2312.22 -2958.11 0 1374.17 -2941.14 0 2315.71 -2941.11 0 
1364.2 -2924.14 0 1368.86 -2932.09 0 2319.2 -2924.11 0 
1336.49 -2907.13 0 2322.69 -2907.11 0 1294.28 -2890.14 0 
1294.86 -2890.37 0 1331.87 -2905.27 0 2326.18 -2890.11 0 
1252.06 -2873.14 0 1257.86 -2875.47 0 2329.67 -2873.11 0 
1209.85 -2856.14 0 1220.86 -2860.57 0 2330.89 -2867.17 0 
2333.17 -2856.1 0 1167.64 -2839.14 0 1183.86 -2845.67 0 
2336.66 -2839.1 0 1125.42 -2822.14 0 1146.86 -2830.77 0 
2340.15 -2822.1 0 1083.21 -2805.14 0 1109.86 -2815.87 0 
2343.64 -2805.1 0 1042.1 -2788.14 0 1072.86 -2800.97 0 
2347.13 -2788.1 0 1018.9 -2771.14 0 1035.86 -2784.95 0 
2350.63 -2771.1 0 998.041 -2754.14 0 998.865 -2754.81 0 
2354.12 -2754.1 0 977.177 -2737.13 0 2357.61 -2737.1 0 
959.722 -2720.13 0 961.866 -2724.66 0 2361.1 -2720.1 0 
951.795 -2703.13 0 2364.59 -2703.09 0 944.062 -2686.13 0 
2367.91 -2686.97 0 2368.09 -2686.09 0 936.518 -2669.13 0 
2371.58 -2669.09 0 929.154 -2652.13 0 2375.07 -2652.09 0 
922.314 -2635.13 0 924.87 -2642.05 0 2378.56 -2635.09 0 
916.032 -2618.13 0 2382.05 -2618.09 0 909.75 -2601.13 0 
2385.55 -2601.09 0 903.469 -2584.13 0 2389.04 -2584.09 0 
897.187 -2567.13 0 2392.53 -2567.09 0 890.905 -2550.13 0 
2396.02 -2550.09 0 884.624 -2533.13 0 887.875 -2541.92 0 
2399.51 -2533.08 0 878.342 -2516.12 0 2403 -2516.08 0 
872.06 -2499.12 0 2404.92 -2506.77 0 2406.5 -2499.08 0 
865.779 -2482.12 0 2409.99 -2482.08 0 859.497 -2465.12 0 
2413.48 -2465.08 0 853.216 -2448.12 0 2416.97 -2448.08 0 
846.934 -2431.12 0 850.879 -2441.8 0 2420.46 -2431.08 0 
840.652 -2414.12 0 2423.96 -2414.08 0 834.37 -2397.12 0 
2427.45 -2397.08 0 828.089 -2380.12 0 2430.94 -2380.07 0 
821.807 -2363.12 0 2434.43 -2363.07 0 815.526 -2346.12 0 
2437.92 -2346.07 0 809.244 -2329.12 0 813.884 -2341.67 0 
2441.42 -2329.07 0 802.962 -2312.11 0 2441.93 -2326.57 0 
2444.91 -2312.07 0 796.681 -2295.11 0 2448.4 -2295.07 0 
790.399 -2278.11 0 2451.89 -2278.07 0 784.117 -2261.11 0 
2455.38 -2261.07 0 777.836 -2244.11 0 2458.88 -2244.07 0 
771.554 -2227.11 0 776.889 -2241.55 0 2462.37 -2227.06 0 
765.272 -2210.11 0 2471.35 -2210.06 0 758.991 -2193.11 0 
2478.94 -2199.77 0 2483.89 -2193.06 0 752.709 -2176.11 0 
2496.43 -2176.06 0 746.427 -2159.11 0 2508.97 -2159.06 0 
743.591 -2142.11 0 2515.94 -2149.61 0 2521.51 -2142.06 0 
741.402 -2125.1 0 2534.06 -2125.06 0 739.241 -2108.1 0 
739.896 -2113.25 0 2538.53 -2108.06 0 737.081 -2091.1 0 
2540.56 -2091.05 0 734.92 -2074.1 0 2541.41 -2074.05 0 
732.76 -2057.1 0 2540.36 -2057.05 0 730.599 -2040.1 0 
2539.31 -2040.05 0 728.439 -2023.1 0 2538.26 -2023.05 0 
726.278 -2006.1 0 2537.21 -2006.05 0 724.118 -1989.1 0 
2536.16 -1989.05 0 721.957 -1972.1 0 2535.11 -1972.05 0 
719.797 -1955.1 0 2534.06 -1955.05 0 717.636 -1938.09 0 
2533.01 -1938.05 0 715.476 -1921.09 0 2531.96 -1921.04 0 
713.315 -1904.09 0 2530.91 -1904.04 0 711.155 -1887.09 0 
2529.86 -1887.04 0 708.995 -1870.09 0 2528.81 -1870.04 0 
706.834 -1853.09 0 2527.76 -1853.04 0 704.674 -1836.09 0 
2526.71 -1836.04 0 702.513 -1819.09 0 702.912 -1822.23 0 
2525.66 -1819.04 0 700.353 -1802.09 0 2524.61 -1802.04 0 
698.192 -1785.09 0 2523.56 -1785.04 0 696.027 -1768.09 0 
2522.51 -1768.04 0 694.133 -1751.08 0 2521.46 -1751.03 0 
692.348 -1734.08 0 2520.41 -1734.03 0 690.663 -1717.08 0 
2519.36 -1717.03 0 686.42 -1700.08 0 2518.31 -1700.03 0 
682.496 -1683.08 0 2517.26 -1683.03 0 679.141 -1666.08 0 
2516.22 -1666.03 0 676.679 -1649.08 0 2515.97 -1662.07 0 
2515.17 -1649.03 0 674.254 -1632.08 0 2514.12 -1632.03 0 
-481.108 -1619.03 0 -488.78 -1615.11 0 -444.107 -1621.87 0 
-421.394 -1615.11 0 670.698 -1615.08 0 2513.07 -1615.03 0 
-518.108 -1600.12 0 -522.04 -1598.11 0 -407.106 -1610.85 0 
-370.104 -1599.83 0 -364.325 -1598.1 0 667.142 -1598.08 0 
2512.02 -1598.03 0 -555.108 -1581.21 0 -555.299 -1581.11 0 
-333.102 -1588.8 0 -307.257 -1581.1 0 663.124 -1581.08 0 
665.924 -1592.25 0 2511.11 -1581.03 0 -588.559 -1564.11 0 
-296.101 -1577.78 0 -259.099 -1566.75 0 -250.188 -1564.1 0 
659.468 -1564.07 0 2511.71 -1564.02 0 -592.108 -1562.29 0 
-621.818 -1547.11 0 -222.098 -1555.73 0 -193.119 -1547.1 0 
656.388 -1547.07 0 2512.93 -1547.02 0 -629.108 -1543.38 0 
-655.078 -1530.11 0 -185.096 -1544.71 0 -148.094 -1533.62 0 
-136.841 -1530.09 0 652.918 -1530.07 0 2514.14 -1530.02 0 
-666.108 -1524.47 0 -688.337 -1513.11 0 -111.093 -1522.24 0 
-82.2635 -1513.09 0 649.362 -1513.07 0 2515.35 -1513.02 0 
-703.108 -1505.56 0 -721.597 -1496.11 0 -74.0909 -1510.55 0 
-59.2316 -1496.09 0 645.806 -1496.07 0 1310.26 -1496.05 0 
1331.95 -1507.25 0 1368.95 -1509.4 0 1405.95 -1509.87 0 
1442.95 -1510.33 0 1479.95 -1510.8 0 1516.95 -1511.26 0 
1553.95 -1511.73 0 1590.95 -1502.32 0 1598.35 -1496.04 0 
2515.98 -1504.26 0 2516.57 -1496.02 0 -740.107 -1486.65 0 
-748.986 -1479.11 0 -42.7189 -1479.09 0 642.25 -1479.07 0 
1277.32 -1479.05 0 1294.95 -1488.15 0 1618.39 -1479.04 0 
2517.78 -1479.02 0 -761.981 -1462.11 0 -37.0878 -1474.91 0 
-28.5771 -1462.09 0 638.694 -1462.07 0 1250.07 -1462.05 0 
1257.95 -1469.06 0 1627.96 -1470.93 0 1638.43 -1462.04 0 
2519 -1462.02 0 -773.726 -1445.11 0 -16.7293 -1445.09 0 
635.138 -1445.07 0 1227.78 -1445.05 0 1658.48 -1445.04 0 
2520.21 -1445.02 0 -777.106 -1440.21 0 -785.472 -1428.11 0 
-4.29655 -1428.08 0 631.582 -1428.07 0 1209.58 -1428.05 0 
1220.95 -1440.54 0 1664.96 -1439.54 0 1678.93 -1428.04 0 
2521.42 -1428.02 0 -797.217 -1411.1 0 -0.0836611 -1422.32 0 
8.13617 -1411.08 0 628.026 -1411.07 0 628.934 -1415.41 0 
1194.11 -1411.05 0 1699.24 -1411.04 0 2522.64 -1411.01 0 
-808.962 -1394.1 0 20.5689 -1394.08 0 624.47 -1394.07 0 
1178.63 -1394.05 0 1183.95 -1399.89 0 1701.96 -1408.73 0 
1721.28 -1394.04 0 2523.85 -1394.01 0 -814.104 -1386.66 0 
-820.707 -1377.1 0 33.0017 -1377.08 0 620.914 -1377.06 0 
1163.16 -1377.05 0 1738.97 -1380.58 0 1743.63 -1377.03 0 
2525.07 -1377.01 0 -832.453 -1360.1 0 36.9203 -1371.72 0 
45.4344 -1360.08 0 617.358 -1360.06 0 1147.69 -1360.05 0 
1762.04 -1360.03 0 2524.94 -1360.01 0 -844.198 -1343.1 0 
57.8671 -1343.08 0 613.802 -1343.06 0 1130.14 -1343.05 0 
1146.95 -1359.24 0 1774.21 -1343.03 0 2524.77 -1343.01 0 
-851.101 -1333.11 0 -855.943 -1326.1 0 70.2998 -1326.08 0 
610.246 -1326.06 0 1108.87 -1326.05 0 1109.95 -1326.83 0 
1775.97 -1340 0 1781.66 -1326.03 0 2523.82 -1326.01 0 
-867.689 -1309.1 0 73.9243 -1321.12 0 82.7327 -1309.07 0 
604.962 -1309.06 0 1085.42 -1309.05 0 1788.58 -1309.03 0 
2520.53 -1309.01 0 -879.434 -1292.1 0 95.1654 -1292.07 0 
595.85 -1292.06 0 1061.96 -1292.05 0 1072.95 -1300.01 0 
1795.5 -1292.03 0 2517.24 -1292.01 0 -888.099 -1279.56 0 
-891.179 -1275.1 0 107.598 -1275.07 0 587.231 -1275.06 0 
591.94 -1284.77 0 1038.51 -1275.05 0 1802.42 -1275.03 0 
2515.99 -1285.57 0 2513.95 -1275.01 0 -902.925 -1258.1 0 
110.928 -1270.52 0 120.031 -1258.07 0 580.182 -1258.06 0 
1015.06 -1258.05 0 1035.95 -1273.19 0 1809.88 -1258.03 0 
2510.65 -1258.01 0 -914.67 -1241.1 0 132.464 -1241.07 0 
574.483 -1241.06 0 994.562 -1241.05 0 998.954 -1246.37 0 
1812.98 -1253.49 0 1821.48 -1241.02 0 2507.36 -1241.01 0 
-925.097 -1226 0 -926.415 -1224.1 0 144.896 -1224.07 0 
570.735 -1224.06 0 980.498 -1224.05 0 1833.08 -1224.02 0 
2504.07 -1224 0 -938.16 -1207.1 0 147.932 -1217.05 0 
150.41 -1207.07 0 566.988 -1207.06 0 966.364 -1207.04 0 
1844.68 -1207.02 0 2500.78 -1207 0 -949.906 -1190.1 0 
152.446 -1190.07 0 563.241 -1190.05 0 954.167 -1190.04 0 
961.955 -1201.76 0 1849.98 -1199.26 0 1856.28 -1190.02 0 
2497.49 -1190 0 -961.651 -1173.09 0 154.482 -1173.06 0 
559.493 -1173.05 0 942.864 -1173.04 0 1867.88 -1173.02 0 
2494.3 -1173 0 -962.095 -1172.45 0 -973.396 -1156.09 0 
156.518 -1156.06 0 555.746 -1156.05 0 931.629 -1156.04 0 
1879.48 -1156.02 0 2492.82 -1156 0 -985.142 -1139.09 0 
158.554 -1139.06 0 551.961 -1139.05 0 554.947 -1152.43 0 
922.34 -1139.04 0 924.958 -1144.24 0 1886.98 -1145.02 0 
1890.67 -1139.02 0 2492.09 -1139 0 -997.179 -1122.09 0 
160.591 -1122.06 0 548.172 -1122.05 0 913.779 -1122.04 0 
1900.08 -1122.01 0 2491.71 -1122 0 -999.093 -1120.38 0 
-1016.25 -1105.09 0 162.627 -1105.06 0 544.388 -1105.05 0 
905.217 -1105.04 0 1908.23 -1105.01 0 2491.34 -1105 0 
-1027.11 -1088.09 0 164.663 -1088.06 0 540.611 -1088.05 0 
896.656 -1088.04 0 1915.01 -1088.01 0 2490.97 -1088 0 
-1031.68 -1071.09 0 166.786 -1071.06 0 536.841 -1071.05 0 
888.095 -1071.04 0 1921.37 -1071.01 0 2490.59 -1071 0 
-1034.24 -1054.09 0 173.678 -1054.06 0 533.076 -1054.05 0 
877.871 -1054.04 0 887.961 -1070.83 0 1923.99 -1064.02 0 
1927.74 -1054.01 0 2490.22 -1053.99 0 -1036.09 -1040.32 0 
-1036.6 -1037.09 0 180.615 -1037.06 0 529.318 -1037.05 0 
864.199 -1037.04 0 1934.1 -1037.01 0 2489.84 -1036.99 0 
-1039.14 -1020.09 0 184.945 -1026.44 0 187.551 -1020.05 0 
525.565 -1020.05 0 850.241 -1020.04 0 850.963 -1020.92 0 
[...]
POINT_DATA 7370
SCALARS Pressure double
LOOKUP_TABLE default
3.0932710339 3.0932710339 3.0932710339 3.0932710339 3.0932710339 3.0932710339 3.0932710339 3.0932710339 3.0932710339 
3.0932710339 3.0932710339 3.0932710339 3.0932710339 3.0932710339 3.0932710339 3.0932710339 3.0932710339 3.0932710339 
3.0932710339 3.0932710339 3.0932710339 3.0932710339 3.0932710339 3.0932710339 3.0932710339 3.0932710339 3.0932710339 
3.0932710339 3.0932710339 3.0932710339 3.0932710339 3.0932710339 3.0932710339 3.0932710339 3.0932710339 3.0932710339 
3.0932710339 3.0932710339 3.0932710339 3.0932710339 3.0932710339 3.0932710339 3.0932710339 3.0932710339 3.0932710339 
3.0932710339 3.0932710339 3.0932710339 3.0932710339 3.0932710339 3.0932710339 3.0932710339 3.0932710339 3.0932710339 
3.0932710339 3.0932710339 3.0932710339 3.0932710339 3.0932710339 3.0932710339 3.0932710339 3.0932710339 3.0932710339 
3.0932710339 3.0932710339 3.0932710339 3.0932710339 3.0932710339 3.0932710339 3.0932710339 3.0932710339 3.0932710339 
3.0932710339 3.0932710339 3.0932710339 3.0932710339 3.0932710339 3.0932710339 3.0932710339 3.0932710339 3.0932710339 
3.0932710339 3.0932710339 3.0932710339 3.0932710339 3.0932710339 3.0932710339 3.0932710339 3.0932710339 3.0932710339 
3.0932710339 3.0932710339 3.0932710339 3.0932710339 3.0932710339 3.0932710339 3.0932710339 3.0932710339 3.0932710339 
3.0932710339 3.0932710339 3.0932710339 3.0932710339 3.0932710339 3.0932710339 3.0932710339 3.0932710339 3.0932710339 
3.0932710339 3.0932710339 3.0932710339 3.0932710339 3.0932710339 3.0932710339 3.0932710339 3.0932710339 3.0932710339 
3.0932710339 3.0932710339 3.0932710339 3.0932710339 3.0932710339 3.0932710339 3.0932710339 3.0932710339 3.0932710339 
3.0932710339 3.0932710339 3.0932710339 3.0932710339 3.0932710339 3.0932710339 3.0932710339 3.0932710339 3.0932710339 
3.0932710339 3.0932710339 3.0932710339 3.0932710339 3.0932710339 3.0932710339 3.0932710339 3.0932710339 3.0932710339 
3.0932710339 3.0932710339 3.0932710339 3.0932710339 3.0932710339 3.0932710339 3.0932710339 3.0932710339 3.0932710339 
3.0932710339 3.0932710339 3.0932710339 3.0932710339 3.0932710339 3.0932710339 3.0932710339 3.0932710339 3.0932710339 
3.0932710339 3.0932710339 3.0932710339 3.0932710339 3.0932710339 3.0932710339 3.0932710339 3.0932710339 3.0932710339 
3.0932710339 3.0932710339 3.0932710339 3.0932710339 3.0932710339 3.0932710339 3.0932710339 3.0932710339 3.0932710339 
3.0932710339 3.0932710339 3.0932710339 3.0932710339 3.0932710339 3.0932710339 3.0932710339 3.0932710339 3.0932710339 
3.0932710339 3.0932710339 3.0932710339 3.0932710339 3.0932710339 3.0932710339 3.0932710339 3.0932710339 3.0932710339 
3.0932710339 3.0932710339 3.0932710339 3.0932710339 3.0932710339 3.0932710339 3.0932710339 3.0932710339 3.0932710339 
3.0932710339 3.0932710339 3.0932710339 3.0932710339 3.0932710339 3.0932710339 3.0932710339 3.0932710339 3.0932710339 
3.0932710339 3.0932710339 3.0932710339 3.0932710339 3.0932710339 3.0932710339 3.0932710339 3.0932710339 3.0932710339 
3.0932710339 3.0932710339 3.0932710339 3.0932710339 3.0932710339 3.0932710339 3.0932710339 3.0932710339 3.0932710339 
3.0932710339 3.0932710339 3.0932710339 3.0932710339 3.0932710339 3.0932710339 3.0932710339 3.0932710339 3.0932710339 
3.0786768432 3.0786768432 3.0786768432 3.0786768432 3.0932710339 3.0932710339 3.0786768432 3.0786768432 3.0786768432 
3.0786768432 3.0786768432 3.0932710339 3.0932710339 3.0786768432 3.0786768432 3.0786768432 3.0786768432 3.0932710339 
3.0932710339 3.0932710339 3.0786768432 3.0786768432 3.0786768432 3.0786768432 3.0932710339 3.0932710339 3.0786768432 
3.0786768432 3.0786768432 3.0786768432 3.0932710339 3.0932710339 3.0786768432 3.0786768432 3.0786768432 3.0786768432 
3.0786768432 3.0932710339 3.0932710339 3.0786768432 3.0786768432 3.0786768432 3.0786768432 3.0932710339 3.0932710339 
3.0786768432 3.0786768432 3.0786768432 3.0786768432 3.0932710339 3.1078652246 3.1078652246 3.1078652246 3.1078652246 
3.1078652246 3.1078652246 3.1078652246 3.1078652246 3.1078652246 3.1078652246 3.0932710339 3.0932710339 3.0786768432 
3.0786768432 3.0786768432 3.0932710339 3.1078652246 3.1078652246 3.1078652246 3.0932710339 3.0786768432 3.0786768432 
3.0786768432 3.0932710339 3.1078652246 3.1078652246 3.1078652246 3.1078652246 3.0932710339 3.0786768432 3.0786768432 
3.0932710339 3.1078652246 3.1078652246 3.0932710339 3.0786768432 3.0786768432 3.0786768432 3.0932710339 3.1078652246 
3.1078652246 3.1078652246 3.1078652246 3.0932710339 3.0786768432 3.0786768432 3.0786768432 3.0932710339 3.0932710339 
3.1078652246 3.1078652246 3.0932710339 3.0786768432 3.0786768432 3.0932710339 3.1078652246 3.1078652246 3.1078652246 
3.1078652246 3.0932710339 3.0786768432 3.0786768432 3.0786768432 3.0932710339 3.1078652246 3.1078652246 3.1078652246 
3.0932710339 3.0786768432 3.0786768432 3.0786768432 3.0932710339 3.1078652246 3.1078652246 3.0932710339 3.0786768432 
3.0786768432 3.0932710339 3.1078652246 3.1078652246 3.1078652246 3.0932710339 3.0786768432 3.0786768432 3.0786768432 
3.0932710339 3.1078652246 3.1078652246 3.1078652246 3.1078652246 3.0932710339 3.0786768432 3.0786768432 3.0786768432 
3.0932710339 3.1078652246 3.1078652246 3.0932710339 3.0786768432 3.0786768432 3.0932710339 3.1078652246 3.1078652246 
3.1078652246 3.0932710339 3.0786768432 3.0786768432 3.0786768432 3.0932710339 3.0932710339 3.1078652246 3.1078652246 
3.0932710339 3.0932710339 3.0786768432 3.0786768432 3.0786768432 3.0932710339 3.1078652246 3.1078652246 3.1078652246 
3.0932710339 3.0786768432 3.0786768432 3.0932710339 3.1078652246 3.1078652246 3.1078652246 3.1078652246 3.0932710339 
3.0786768432 3.0786768432 3.0786768432 3.0932710339 3.1078652246 3.1078652246 3.0932710339 3.0786768432 3.0786768432 
3.0786768432 3.0932710339 3.1078652246 3.1078652246 3.0932710339 3.0786768432 3.0786768432 3.0932710339 3.1078652246 
3.1078652246 3.1078652246 3.1078652246 3.0932710339 3.0786768432 3.0786768432 3.0932710339 3.1078652246 3.1078652246 
3.0932710339 3.0786768432 3.0786768432 3.0786768432 3.0932710339 3.1078652246 3.1078652246 3.0932710339 3.0786768432 
3.0786768432 3.0932710339 3.0932710339 3.1078652246 3.1078652246 3.1078652246 3.1078652246 3.0932710339 3.0786768432 
3.0786768432 3.0932710339 3.1078652246 3.1078652246 3.0932710339 3.0786768432 3.0786768432 3.0786768432 3.0932710339 
3.1078652246 3.1078652246 3.0932710339 3.0786768432 3.0786768432 3.0932710339 3.1078652246 3.1078652246 3.0932710339 
3.0786768432 3.0786768432 3.0932710339 3.1078652246 3.1078652246 3.0932710339 3.0786768432 3.0786768432 3.0932710339 
3.1078652246 3.1078652246 3.1078652246 3.1078652246 3.0932710339 3.0786768432 3.0786768432 3.0786768432 3.0932710339 
3.1078652246 3.1078652246 3.0932710339 3.0786768432 3.0786768432 3.0786768432 3.0932710339 3.1078652246 3.1078652246 
3.1078652246 3.0932710339 3.0786768432 3.0786768432 3.0932710339 3.1078652246 3.1078652246 3.0932710339 3.0786768432 
3.0786768432 3.0932710339 3.1078652246 3.1078652246 3.0932710339 3.0786768432 3.0786768432 3.0932710339 3.0932710339 
3.1078652246 3.1078652246 3.1078652246 3.0932710339 3.0786768432 3.0786768432 3.0932710339 3.1078652246 3.1078652246 
3.1078652246 3.0932710339 3.0786768432 3.0786768432 3.0786768432 3.0932710339 3.1078652246 3.1078652246 3.0932710339 
3.0786768432 3.0786768432 3.0932710339 3.1078652246 3.1078652246 3.1078652246 3.0932710339 3.0786768432 3.0786768432 
3.0932710339 3.1078652246 3.1078652246 3.0932710339 3.0932710339 3.0786768432 3.0786768432 3.0932710339 3.1078652246 
3.1078652246 3.0932710339 3.0786768432 3.0786768432 3.0932710339 3.1078652246 3.1224594153 3.1224594153 3.1224594153 
3.1078652246 3.1078652246 3.0932710339 3.0786768432 3.0786768432 3.0932710339 3.0932710339 3.1078652246 3.1078652246 
3.1224594153 3.1224594153 3.1224594153 3.1224594153 3.1224594153 3.1224594153 3.1078652246 3.0932710339 3.0786768432 
3.0786768432 3.0932710339 3.1078652246 3.1224594153 3.1224594153 3.1224594153 3.1224594153 3.1224594153 3.1078652246 
3.0932710339 3.0786768432 3.0786768432 3.0932710339 3.1078652246 3.1224594153 3.1224594153 3.1224594153 3.1224594153 
3.1224594153 3.1078652246 3.0932710339 3.0786768432 3.0786768432 3.0932710339 3.1078652246 3.1224594153 3.1224594153 
3.1224594153 3.1078652246 3.0932710339 3.0786768432 3.0786768432 3.0786768432 3.0786768432 3.0786768432 3.0932710339 
3.1078652246 3.1078652246 3.1224594153 3.1224594153 3.1224594153 3.1078652246 3.0932710339 3.0786768432 3.0786768432 
3.0786768432 3.0786768432 3.0786768432 3.0786768432 3.0932710339 3.1078652246 3.1224594153 3.1224594153 3.1224594153 
3.1078652246 3.0932710339 3.0786768432 3.0786768432 3.0786768432 3.0786768432 3.0786768432 3.0786768432 3.0640826525 
3.0640826525 3.0640826525 3.0640826525 3.0640826525 3.0640826525 3.0640826525 3.0786768432 3.0932710339 3.1078652246 
3.1224594153 3.1224594153 3.1224594153 3.1078652246 3.1078652246 3.0932710339 3.0786768432 3.0786768432 3.0786768432 
3.0786768432 3.0786768432 3.0640826525 3.0640826525 3.0640826525 3.0640826525 3.0786768432 3.0932710339 3.1078652246 
3.1078652246 3.1224594153 3.1224594153 3.1224594153 3.1078652246 3.0932710339 3.0786768432 3.0786768432 3.0786768432 
3.0786768432 3.0786768432 3.0786768432 3.0640826525 3.0640826525 3.0640826525 3.0786768432 3.0932710339 3.1078652246 
3.1224594153 3.1224594153 3.1224594153 3.1078652246 3.0932710339 3.0786768432 3.0786768432 3.0786768432 3.0786768432 
3.0786768432 3.0640826525 3.0640826525 3.0640826525 3.0640826525 3.0786768432 3.0932710339 3.1078652246 3.1224594153 
3.1224594153 3.1224594153 3.1078652246 3.0932710339 3.0786768432 3.0786768432 3.0786768432 3.0786768432 3.0640826525 
3.0640826525 3.0786768432 3.0932710339 3.0932710339 3.1078652246 3.1224594153 3.1224594153 3.1224594153 3.1078652246 
3.0932710339 3.0786768432 3.0786768432 3.0786768432 3.0786768432 3.0640826525 3.0640826525 3.0640826525 3.0640826525 
3.0786768432 3.0932710339 3.1078652246 3.1078652246 3.1224594153 3.1224594153 3.1224594153 3.1078652246 3.0932710339 
3.0786768432 3.0786768432 3.0786768432 3.0786768432 3.0640826525 3.0640826525 3.0786768432 3.0932710339 3.1078652246 
3.1224594153 3.1224594153 3.1078652246 3.0932710339 3.0786768432 3.0786768432 3.0786768432 3.0786768432 3.0786768432 
3.0640826525 3.0640826525 3.0640826525 3.0786768432 3.0932710339 3.1078652246 3.1224594153 3.1224594153 3.1224594153 
3.1078652246 3.0932710339 3.0786768432 3.0786768432 3.0786768432 3.0786768432 3.0640826525 3.0640826525 3.0640826525 
3.0786768432 3.0932710339 3.1078652246 3.1224594153 3.1224594153 3.1224594153 3.1078652246 3.1078652246 3.0932710339 
3.0786768432 3.0786768432 3.0786768432 3.0640826525 3.0640826525 3.0640826525 3.0786768432 3.0932710339 3.1078652246 
3.1224594153 3.1224594153 3.1224594153 3.1078652246 3.0932710339 3.0786768432 3.0786768432 3.0786768432 3.0786768432 
3.0640826525 3.0640826525 3.0640826525 3.0786768432 3.0932710339 3.1078652246 3.1224594153 3.1224594153 3.1078652246 
3.0932710339 3.0786768432 3.0786768432 3.0786768432 3.0640826525 3.0640826525 3.0786768432 3.0932710339 3.0932710339 
3.1078652246 3.1078652246 3.1224594153 3.1224594153 3.1224594153 3.1078652246 3.0932710339 3.0786768432 3.0786768432 
3.0786768432 3.0786768432 3.0786768432 3.0640826525 3.0640826525 3.0786768432 3.0932710339 3.1078652246 3.1224594153 
3.1224594153 3.1224594153 3.1078652246 3.0932710339 3.0786768432 3.0786768432 3.0786768432 3.0640826525 3.0640826525 
3.0786768432 3.0932710339 3.1078652246 3.1078652246 3.1224594153 3.1224594153 3.1078652246 3.0932710339 3.0786768432 
3.0786768432 3.0786768432 3.0640826525 3.0640826525 3.0786768432 3.0932710339 3.1078652246 3.1224594153 3.1224594153 
3.1224594153 3.1078652246 3.0932710339 3.0786768432 3.0786768432 3.0786768432 3.0786768432 3.0640826525 3.0640826525 
3.0640826525 3.0640826525 3.0786768432 3.0932710339 3.1078652246 3.1224594153 3.137053606 3.137053606 3.137053606 
3.1224594153 3.1078652246 3.0932710339 3.0786768432 3.0786768432 3.0786768432 3.0640826525 3.0640826525 3.0786768432 
3.0932710339 3.1078652246 3.1224594153 3.1224594153 3.137053606 3.137053606 3.137053606 3.137053606 3.1224594153 
3.1224594153 3.1078652246 3.0932710339 3.0786768432 3.0786768432 3.0786768432 3.0786768432 3.0640826525 3.0640826525 
3.0786768432 3.0932710339 3.1078652246 3.1078652246 3.1224594153 3.137053606 3.137053606 3.137053606 3.137053606 
3.1224594153 3.1078652246 3.0932710339 3.0786768432 3.0786768432 3.0786768432 3.0786768432 3.0640826525 3.0494884618 
3.0494884618 3.0494884618 3.0640826525 3.0786768432 3.0932710339 3.1078652246 3.1224594153 3.137053606 3.137053606 
3.137053606 3.1224594153 3.1078652246 3.0932710339 3.0786768432 3.0786768432 3.0786768432 3.0640826525 3.0494884618 
3.0494884618 3.0494884618 3.0494884618 3.0494884618 3.0640826525 3.0786768432 3.0932710339 3.0932710339 3.1078652246 
3.1224594153 3.1224594153 3.137053606 3.137053606 3.137053606 3.1224594153 3.1078652246 3.0932710339 3.0932710339 
3.0786768432 3.0786768432 3.0786768432 3.0640826525 3.0640826525 3.0494884618 3.0494884618 3.0494884618 3.0640826525 
3.0786768432 3.0932710339 3.1078652246 3.1224594153 3.137053606 3.137053606 3.137053606 3.1224594153 3.1078652246 
3.0932710339 3.0786768432 3.0786768432 3.0786768432 3.0640826525 3.0494884618 3.0494884618 3.0494884618 3.0494884618 
3.0640826525 3.0786768432 3.0932710339 3.1078652246 3.1078652246 3.1224594153 3.137053606 3.137053606 3.137053606 
3.137053606 3.1224594153 3.1078652246 3.0932710339 3.0786768432 3.0786768432 3.0786768432 3.0786768432 3.0786768432 
3.0640826525 3.0494884618 3.0494884618 3.0640826525 3.0786768432 3.0932710339 3.1078652246 3.1224594153 3.1224594153 
3.137053606 3.137053606 3.1224594153 3.1078652246 3.0932710339 3.0786768432 3.0786768432 3.0786768432 3.0640826525 
3.0494884618 3.0494884618 3.0494884618 3.0640826525 3.0786768432 3.0932710339 3.0932710339 3.1078652246 3.1224594153 
3.137053606 3.137053606 3.137053606 3.137053606 3.1224594153 3.1078652246 3.0932710339 3.0786768432 3.0786768432 
3.0786768432 3.0640826525 3.0494884618 3.0494884618 3.0494884618 3.0640826525 3.0786768432 3.0932710339 3.1078652246 
3.1078652246 3.1224594153 3.137053606 3.137053606 3.1224594153 3.1078652246 3.0932710339 3.0786768432 3.0786768432 
3.0786768432 3.0786768432 3.0640826525 3.0494884618 3.0494884618 3.0494884618 3.0640826525 3.0786768432 3.0932710339 
3.1078652246 3.1224594153 3.137053606 3.137053606 3.137053606 3.1224594153 3.1078652246 3.0932710339 3.0786768432 
3.0786768432 3.0786768432 3.0640826525 3.0494884618 3.0494884618 3.0640826525 3.0786768432 3.0932710339 3.1078652246 
3.1224594153 3.1224594153 3.137053606 3.137053606 3.137053606 3.1224594153 3.1224594153 3.1078652246 3.0932710339 
3.0786768432 3.0786768432 3.0786768432 3.0786768432 3.0786768432 3.0640826525 3.0494884618 3.0494884618 3.0494884618 
3.0640826525 3.0786768432 3.0932710339 3.1078652246 3.1224594153 3.137053606 3.137053606 3.1224594153 3.1078652246 
3.0932710339 3.0786768432 3.0786768432 3.0786768432 3.0786768432 3.0786768432 3.0640826525 3.0640826525 3.0494884618 
3.0494884618 3.0640826525 3.0786768432 3.0932710339 3.1078652246 3.1078652246 3.1224594153 3.137053606 3.137053606 
3.1224594153 3.1078652246 3.0932710339 3.0786768432 3.0786768432 3.0786768432 3.0786768432 3.0786768432 3.0786768432 
3.0640826525 3.0494884618 3.0348942711 3.0348942711 3.0348942711 3.0348942711 3.0494884618 3.0640826525 3.0786768432 
3.0786768432 3.0932710339 3.0932710339 3.1078652246 3.1224594153 3.137053606 3.137053606 3.137053606 3.1224594153 
3.1224594153 3.1078652246 3.0932710339 3.0786768432 3.0640826525 3.0640826525 3.0640826525 3.0640826525 3.0640826525 
3.0786768432 3.0786768432 3.0786768432 3.0786768432 3.0786768432 3.0786768432 3.0786768432 3.0640826525 3.0494884618 
3.0348942711 3.0348942711 3.0348942711 3.0348942711 3.0494884618 3.0494884618 3.0640826525 3.0786768432 3.0932710339 
3.1078652246 3.1224594153 3.1224594153 3.137053606 3.137053606 3.1224594153 3.1078652246 3.0932710339 3.0786768432 
3.0640826525 3.0640826525 3.0640826525 3.0640826525 3.0786768432 3.0786768432 3.0786768432 3.0640826525 3.0494884618 
3.0348942711 3.0348942711 3.0348942711 3.0348942711 3.0494884618 3.0640826525 3.0640826525 3.0786768432 3.0932710339 
3.1078652246 3.1224594153 3.137053606 3.137053606 3.1224594153 3.1078652246 3.0932710339 3.0786768432 3.0786768432 
3.0640826525 3.0640826525 3.0786768432 3.0786768432 3.0786768432 3.0640826525 3.0494884618 3.0348942711 3.0348942711 
3.0494884618 3.0640826525 3.0786768432 3.0932710339 3.1078652246 3.1224594153 3.137053606 3.137053606 3.137053606 
3.137053606 3.1224594153 3.1078652246 3.0932710339 3.0932710339 3.0786768432 3.0640826525 3.0640826525 3.0640826525 
3.0640826525 3.0786768432 3.0786768432 3.0640826525 3.0494884618 3.0348942711 3.0348942711 3.0348942711 3.0494884618 
3.0640826525 3.0640826525 3.0786768432 3.0932710339 3.1078652246 3.1224594153 3.137053606 3.137053606 3.1224594153 
3.1078652246 3.0932710339 3.0786768432 3.0640826525 3.0640826525 3.0640826525 3.0786768432 3.0786768432 3.0786768432 
3.0640826525 3.0494884618 3.0494884618 3.0348942711 3.0203000804 3.0203000804 3.0203000804 3.0203000804 3.0348942711 
3.0348942711 3.0494884618 3.0640826525 3.0786768432 3.0932710339 3.1078652246 3.1078652246 3.1224594153 2.9473291268 
2.9473291268 2.9619233175 2.9619233175 2.9765175082 2.9765175082 2.991111699 2.991111699 3.0057058897 3.0057058897 
3.0203000804 3.0203000804 3.0348942711 3.0348942711 3.0494884618 3.0494884618 3.0640826525 3.0640826525 3.0786768432 
3.0786768432 3.0932710339 3.0932710339 3.1078652246 3.1078652246 3.1224594153 3.1224594153 2.9473291268 2.9619233175 
2.9765175082 2.991111699 3.0057058897 3.0203000804 3.0348942711 3.0494884618 3.0640826525 3.0786768432 3.0932710339 
3.1078652246 3.1224594153 3.137053606 2.9473291268 2.9619233175 2.9765175082 2.991111699 3.0057058897 3.0203000804 
3.0348942711 3.0494884618 3.0640826525 3.0786768432 3.0932710339 3.1078652246 3.1224594153 3.137053606 2.9473291268 
2.9619233175 2.9765175082 2.991111699 3.0057058897 3.0203000804 3.0348942711 3.0494884618 3.0640826525 3.0786768432 
3.0932710339 3.1078652246 3.1224594153 3.137053606 2.9473291268 2.9619233175 2.9765175082 2.991111699 3.0057058897 
3.0203000804 3.0348942711 3.0494884618 3.0640826525 3.0786768432 3.0932710339 3.1078652246 3.1224594153 3.137053606 
2.9473291268 2.9619233175 2.9765175082 2.991111699 3.0057058897 3.0203000804 3.0348942711 3.0494884618 3.0640826525 
3.0786768432 3.0932710339 3.1078652246 3.1224594153 3.137053606 2.9473291268 2.9619233175 2.9765175082 2.991111699 
3.0057058897 3.0203000804 3.0348942711 3.0494884618 3.0640826525 3.0786768432 3.0932710339 3.1078652246 3.1224594153 
3.137053606 2.9473291268 2.9619233175 2.9765175082 2.991111699 3.0057058897 3.0203000804 3.0348942711 3.0494884618 
3.0640826525 3.0786768432 3.0932710339 3.1078652246 3.1224594153 3.137053606 2.9473291268 2.9619233175 2.9765175082 
2.991111699 3.0057058897 3.0203000804 3.0348942711 3.0494884618 3.0640826525 3.0786768432 3.0932710339 3.1078652246 
3.1224594153 3.137053606 2.9473291268 2.9619233175 2.9765175082 2.991111699 3.0057058897 3.0203000804 3.0348942711 
3.0494884618 3.0640826525 3.0786768432 3.0932710339 3.1078652246 3.1224594153 3.137053606 3.137053606 3.1224594153 
3.1078652246 3.0932710339 3.0786768432 3.0640826525 3.0640826525 3.0786768432 3.0786768432 3.0786768432 3.0640826525 
3.0494884618 3.0348942711 3.0203000804 3.0203000804 3.0203000804 3.0348942711 3.0494884618 3.0640826525 3.0786768432 
3.0932710339 3.1078652246 3.1078652246 2.9473291268 2.9473291268 2.9619233175 2.9619233175 2.9765175082 2.9765175082 
2.991111699 2.991111699 3.0057058897 3.0057058897 3.0203000804 3.0203000804 3.0348942711 3.0348942711 3.0494884618 
3.0494884618 3.0640826525 3.0640826525 3.0786768432 3.0786768432 3.0932710339 3.0932710339 3.1078652246 3.1078652246 
2.9473291268 2.9619233175 2.9765175082 2.991111699 3.0057058897 3.0203000804 3.0348942711 3.0494884618 3.0640826525 