# vtk DataFile Version 4.2
vtk output
ASCII
DATASET UNSTRUCTURED_GRID
POINTS 1740 double
2144.07 -94.44003 0 2911 0 0 16.54298 -37.82236 0 
5.09149 -21.30132 0 1.27433 -10.75385 0 0 0 0 
2.54575 15.14293 0 6.36291 23.76126 0 14.00014 34.89063 0 
30.50239 50.70793 0 33.39435 -52.93479 0 2050.91 -103.7862 0 
60.1465 -69.72165 0 88.83633 -83.2817 0 118.7656 -94.71113 0 
153.4168 -105.7022 0 199.5806 -117.771 0 261.4466 -130.7139 0 
345.846 -144.1892 0 460.3522 -157.0592 0 608.4185 -167.1903 0 
783.2313 -172.4016 0 941.0559 -172.4533 0 1063.409 -170.1096 0 
1164.153 -166.8746 0 1263.449 -162.682 0 1375.468 -156.8941 0 
1513.293 -148.414 0 1665.281 -137.5317 0 1791.864 -127.3721 0 
2195.451 -89.09491 0 2273.924 -80.67077 0 2383.731 -68.3513 0 
2517.64 -52.47337 0 2649.227 -35.9232 0 2740.773 -23.82991 0 
2804.387 -15.13419 0 2848.802 -8.916218 0 2881.944 -4.196067 0 
56.61447 67.79801 0 84.09687 81.25172 0 112.4783 92.48395 0 
142.1748 102.3504 0 174.8563 111.6168 0 213.124 120.8806 0 
260.3759 130.5151 0 324.6539 141.1779 0 418.1422 152.9178 0 
535.6656 162.9871 0 690.9154 170.4255 0 902.6513 172.7852 0 
1100.32 169.0517 0 1270.99 162.3262 0 1462.794 151.6837 0 
1631.287 140.0952 0 1747.993 131 0 1922.788 115.9027 0 
2069.56 101.951 0 2128.804 96.0021 0 2297.147 78.11721 0 
2414.379 64.80104 0 2554.023 47.99319 0 2673.693 32.73885 0 
2757.97 21.50315 0 2814.297 13.7575 0 2852.02 8.460961 0 
2882.272 4.148909 0 1791.052 127.4402 0 1366.894 157.3738 0 
1444.38 -152.8302 0 1547.039 146.1296 0 1589.287 -143.1614 0 
1878.731 119.8675 0 1997.072 108.9828 0 1185.654 166.0472 0 
1882.536 -119.5292 0 1971.323 -111.4145 0 1684.777 136.0292 0 
2099.317 -98.9855 0 2234.809 84.9091 0 2181.695 90.53914 0 
1728.573 -132.5703 0 1718.815 133.3509 0 1834.825 123.7132 0 
1960.305 112.4444 0 2033.69 105.4648 0 2099.184 98.99892 0 
2214.291 -77.533523949 396.8421 2955.512 11.58343076 396.8421 158.0786 -26.102385097 396.8421 
147.0109 -10.203380205 396.8421 143.3217 -0.036964919991 396.8421 142.09 10.340532261 396.8421 
144.5505 24.973758135 396.8421 148.2398 33.313015509 396.8421 155.621 44.094554809 396.8421 
171.5701 59.443223055 396.8421 174.3652 -40.617018748 396.8421 2124.254 -86.425755037 396.8421 
200.2206 -56.704767293 396.8421 227.9488 -69.670386636 396.8421 256.8748 -80.575874043 396.8421 
290.3647 -91.040855958 396.8421 334.981 -102.50282803 396.8421 394.7733 -114.75359446 396.8421 
476.3434 -127.44665719 396.8421 587.0114 -139.4751706 396.8421 730.1145 -148.79924193 396.8421 
899.0676 -153.37221738 396.8421 1051.602 -153.08379948 396.8421 1169.853 -150.60800648 396.8421 
1267.221 -147.3414935 396.8421 1363.188 -143.18099549 396.8421 1471.452 -137.49952663 396.8421 
1604.657 -129.24671996 396.8421 1751.55 -118.73095931 396.8421 1873.891 -108.96509898 396.8421 
2263.949 -72.456213706 396.8421 2339.792 -64.465044531 396.8421 2445.918 -52.80033743 396.8421 
2575.338 -37.79898016 396.8421 2702.515 -22.195465978 396.8421 2790.992 -10.81183365 396.8421 
2852.473 -2.6344777253 396.8421 2895.4 3.209066061 396.8421 2927.431 7.6430602192 396.8421 
196.807 76.06390679 396.8421 223.3682 89.177870159 396.8421 250.7983 100.1489847 396.8421 
279.4994 109.80496129 396.8421 311.0855 118.89205056 396.8421 348.0705 127.99703941 396.8421 
393.7383 137.49252858 396.8421 455.8617 148.04111511 396.8421 546.2162 159.7253504 396.8421 
659.8003 169.85317558 396.8421 809.846 177.51350509 396.8421 1014.485 180.33483151 396.8421 
1205.528 177.11917035 396.8421 1370.477 170.86703963 396.8421 1555.851 160.75520827 396.8421 
1718.696 149.61339781 396.8421 1831.49 140.81060736 396.8421 2000.426 126.11788215 396.8421 
2142.278 112.4706204 396.8421 2199.537 106.6348968 396.8421 2362.236 89.039620488 396.8421 
2475.539 75.89684999 396.8421 2610.501 59.265450959 396.8421 2726.16 44.137006866 396.8421 
2807.613 32.976555483 396.8421 2862.05 25.275278496 396.8421 2898.509 20.005892248 396.8421 
2927.749 15.714171068 396.8421 1873.106 137.35442601 396.8421 1463.165 166.18168432 396.8421 
1538.054 -133.53643807 396.8421 1637.272 155.42757244 396.8421 1678.104 -124.1626052 396.8421 
1957.846 129.98482638 396.8421 2072.22 119.35637164 396.8421 1288 174.35010892 396.8421 
1961.524 -101.45223387 396.8421 2047.334 -93.698675737 396.8421 1770.393 145.68347631 396.8421 
2171.038 -81.855894886 396.8421 2301.989 95.729825799 396.8421 2250.655 101.26806232 396.8421 
1812.721 -113.95653821 396.8421 1803.29 143.08988605 396.8421 1915.411 133.73010665 396.8421 
2036.686 122.74054346 396.8421 2107.61 115.9131852 396.8421 2170.909 109.57588043 396.8421 
2284.511 -62.674904968 793.6842 3000.027 21.794055155 793.6842 299.6143 -15.504636864 793.6842 
288.9304 -0.20771969954 793.6842 285.3691 9.5865808714 793.6842 284.1801 19.593992884 793.6842 
286.5551 33.72161177 793.6842 290.1167 41.781583382 793.6842 297.2417 52.212048674 793.6842 
312.6379 67.081560709 793.6842 315.336 -29.446534335 793.6842 2197.597 -71.152766439 793.6842 
340.2947 -44.87153033 793.6842 367.0612 -57.279399275 793.6842 394.9839 -67.697573726 793.6842 
427.3123 -77.677310044 793.6842 470.3812 -88.584924162 793.6842 528.0998 -100.21073276 793.6842 
606.8411 -112.20812327 793.6842 713.6708 -123.50404067 793.6842 851.8104 -132.1474737 793.6842 
1014.904 -136.21096542 793.6842 1162.147 -135.67976599 793.6842 1276.298 -133.13447338 793.6842 
1370.288 -129.87942987 793.6842 1462.927 -125.78556896 793.6842 1567.436 -120.24039706 793.6842 
1696.021 -112.23723779 793.6842 1837.82 -102.0942345 793.6842 1955.917 -92.711928009 793.6842 
2332.447 -57.839923089 793.6842 2405.659 -50.237645279 793.6842 2508.105 -39.155394928 793.6842 
2633.037 -24.925065419 793.6842 2755.801 -10.145152542 793.6842 2841.209 0.6260859631 793.6842 
2900.561 8.3584370103 793.6842 2941.997 13.881712498 793.6842 2972.917 18.071503546 793.6842 
336.9995 83.212759745 793.6842 362.6396 95.964162426 793.6842 389.1182 106.64965836 793.6842 
416.8239 116.06912335 793.6842 447.3145 124.94789351 793.6842 483.0167 133.85989747 793.6842 
527.1009 143.1741079 793.6842 587.0697 153.55144034 793.6842 674.2905 165.09876359 793.6842 
783.9349 175.18679354 793.6842 928.7766 182.94711444 793.6842 1126.317 186.08259831 793.6842 
1310.735 183.27035055 793.6842 1469.963 177.41357454 793.6842 1648.908 167.77043663 793.6842 
1806.105 157.04605901 793.6842 1914.987 148.52980607 793.6842 2078.064 134.25684739 793.6842 
2214.996 120.95013947 793.6842 2270.269 115.24839553 793.6842 2427.326 98.022374116 793.6842 
2536.699 85.126957908 793.6842 2666.98 68.780719715 793.6842 2778.628 53.889647128 793.6842 
2857.255 42.893303987 793.6842 2909.806 35.300652203 793.6842 2945.001 30.103678747 793.6842 
2973.224 25.869897035 793.6842 1955.16 145.17817756 793.6842 1559.437 172.96068019 793.6842 
1631.729 -116.39121027 793.6842 1727.505 162.65160724 793.6842 1766.921 -107.32719073 793.6842 
2036.96 138.01922857 793.6842 2147.368 127.6691364 793.6842 1390.347 180.69515244 793.6842 
2040.511 -85.512844529 793.6842 2123.346 -78.097352909 793.6842 1856.009 153.24793716 793.6842 
2242.759 -66.794179913 793.6842 2369.167 104.57780295 793.6842 2319.614 109.9993715 793.6842 
1896.869 -97.503576861 793.6842 1887.765 150.73784314 793.6842 1995.998 141.65948489 793.6842 
2113.066 130.96771251 793.6842 2181.531 124.3105712 793.6842 2242.634 118.12264643 793.6842 
2354.732 -49.689800947 1190.526 3044.539 30.717802915 1190.526 441.15 -6.2333185082 1190.526 
430.8497 8.4766982363 1190.526 427.4164 17.905391508 1190.526 426.2701 27.546955879 1190.526 
428.5601 41.170905995 1190.526 431.9934 48.95050076 1190.526 438.8627 59.026036742 1190.526 
453.7057 73.405781844 1190.526 456.3069 -19.62217491 1190.526 2270.94 -57.794943193 1190.526 
480.3688 -34.413228766 1190.526 506.1737 -46.292533791 1190.526 533.0934 -56.252576647 1190.526 
564.26 -65.779559337 1190.526 605.7815 -76.17423828 1190.526 661.4265 -87.227563385 1190.526 
737.3385 -98.59615049 1190.526 840.33 -109.24138159 1190.526 973.5064 -117.29624314 1190.526 
1130.74 -120.93947541 1190.526 1272.693 -120.22780852 1190.526 1382.742 -117.64981203 1190.526 
1473.356 -114.42905797 1190.526 1562.666 -110.41755799 1190.526 1663.42 -105.01826078 1190.526 
1787.385 -97.265275721 1190.526 1924.09 -87.480583078 1190.526 2037.944 -78.457864647 1190.526 
2400.946 -45.071484924 1190.526 2471.527 -37.815329171 1190.526 2570.292 -27.248083618 1190.526 
2690.735 -13.694464377 1190.526 2809.091 0.36762394003 1190.526 2891.43 10.607987003 1190.526 
2948.647 17.955861036 1190.526 2988.597 23.202966737 1190.526 3018.403 27.182551641 1190.526 
477.1918 89.028774082 1190.526 501.9109 101.39699029 1190.526 527.4382 111.77525078 1190.526 
554.1485 120.93544408 1190.526 583.5435 129.58089763 1190.526 617.963 138.27112229 1190.526 
660.4633 147.36893699 1190.526 718.2775 157.52847587 1190.526 802.3645 168.87423762 1190.526 
908.0698 178.84663737 1190.526 1047.707 186.61713379 1190.526 1238.151 189.96547894 1190.526 
1415.942 187.48583995 1190.526 1569.449 181.9829613 1190.526 1741.965 172.78523439 1190.526 
1893.514 162.47883279 1190.526 1998.484 154.26146389 1190.526 2155.702 140.44563532 1190.526 
2287.714 127.52873201 1190.526 2341.001 121.98558738 1190.526 2492.415 105.21386228 1190.526 
2597.858 92.638424625 1190.526 2723.46 76.678266963 1190.526 2831.095 62.123745728 1190.526 
2906.899 51.368419194 1190.526 2957.56 43.939118398 1190.526 2991.49 38.852654716 1190.526 
3018.699 34.70820253 1190.526 2037.214 151.02157135 1190.526 1655.708 177.7478073 1190.526 
1725.403 -101.28479268 1190.526 1817.738 167.87296579 1190.526 1855.738 -92.524035508 1190.526 
2116.075 144.09197053 1190.526 2222.516 134.05460001 1190.526 1492.694 185.08147001 1190.526 
2119.498 -71.548539194 1190.526 2199.357 -64.441955385 1190.526 1941.625 158.81683504 1190.526 
2314.479 -53.626763148 1190.526 2436.346 111.60042547 1190.526 2388.573 116.87873533 1190.526 
1981.017 -83.062928924 1190.526 1972.24 156.39413824 1190.526 2076.584 147.61702101 1190.526 
[...]
POINT_DATA 1740
FIELD FieldData 1
Pressure 1 1740 double
3.104990718 3.017509703 3.0092327228 2.986030984 2.9784669372 2.9580642024 2.9708968478 2.988045361 3.0191771983 
3.0328968125 3.0105225291 3.1088536886 3.0337001813 3.0480238598 3.0651081972 3.0635821463 3.0811648699 3.0864086838 
3.1065979781 3.1120162957 3.1301349701 3.1383952259 3.1409492899 3.1459449794 3.1420106686 3.1379731792 3.1346078285 
3.1309885654 3.1248552521 3.1195871704 3.1022602051 3.0989051003 3.0931338545 3.0850871328 3.0740909344 3.0641138348 
3.0540242645 3.0455665077 3.0364221599 3.0690170481 3.0812753111 3.0938219806 3.1071322595 3.1133406863 3.1202090082 
3.1276890059 3.1355602077 3.1515798244 3.1643300334 3.1819503927 3.1935376021 3.2001071281 3.206739149 3.2128361364 
3.2167201583 3.2196167441 3.220648865 3.2064238774 3.0844437231 3.083493748 3.0781705573 3.0695282503 3.059975974 
3.0497749147 3.0394576015 3.0325662533 3.0298257924 3.2196074858 3.2102006107 3.1334910693 3.2137496443 3.1281055343 
3.2203133246 3.2216981435 3.2065150736 3.1157009368 3.1121631055 3.2172911152 3.1069193915 3.0855354651 3.0844239669 
3.122078495 3.2188931941 3.22039501 3.2218299714 3.2217764091 3.1196628999 3.1019329228 3.0225584655 3.0271569011 
3.0004806225 3.0076340967 2.9857004857 2.9943075615 3.0064324512 3.0344140207 3.0526453971 3.0343426144 3.1062613218 
3.0548046158 3.0672845225 3.0809615326 3.0849098569 3.1001980403 3.1094458599 3.122437806 3.1277298032 3.1372550793 
3.1418243933 3.1450926418 3.1452045138 3.1413792156 3.1367094643 3.1318313867 3.1273793735 3.1218798368 3.1168442425 
3.099540222 3.0955292823 3.0897378615 3.081932004 3.0708549103 3.0607942741 3.0509485643 3.0433932882 3.0272945545 
3.0858865839 3.1068650659 3.1189824081 3.1273995965 3.13663869 3.1413008842 3.1469154602 3.1575963532 3.1695926625 
3.1786164246 3.1887228545 3.1971130796 3.2033923035 3.2101207433 3.2135918837 3.2168192911 3.2189672677 3.2216246025 
3.0822822174 3.0982446139 3.0875244068 3.0820619674 3.0739708263 3.063941292 3.0540826073 3.0438308438 3.0377757918 
3.0385010114 3.2197735788 3.2122629556 3.1306289434 3.2157476136 3.1246040153 3.2211698949 3.2223048172 3.2081629637 
3.112835982 3.1092220622 3.2177662366 3.1043626642 3.0907395481 3.0923611568 3.1196630229 3.2184343948 3.2203163545 
3.2219796815 3.2170918445 3.0928620616 3.0998649553 3.0233490561 3.0278358487 3.0001699996 3.002257126 2.9842571351 
2.9972464103 3.0108137656 3.0394526863 3.0606070126 3.0425846799 3.1040529897 3.0576243388 3.0765851026 3.0947917313 
3.101455915 3.1136668496 3.1217100981 3.1344930596 3.1404404135 3.146995445 3.1492869461 3.1487866658 3.1469172461 
3.141498182 3.1357163301 3.1308277039 3.125136955 3.1199340364 3.1148286563 3.0974770858 3.0937586077 3.087783402 
3.0800493265 3.0687292215 3.0585030543 3.0491047467 3.0419888773 3.027576731 3.0935037174 3.1152997603 3.1338410962 
3.142970393 3.1536048443 3.1623465771 3.1722879267 3.1764867249 3.1853565945 3.1953459986 3.2014103516 3.2075981903 
3.2100207003 3.2167424037 3.2200890756 3.220573761 3.2219835802 3.2245282482 3.0874486173 3.0916662993 3.0903282558 
3.0849878512 3.0770947638 3.0665287133 3.0569830417 3.0470728939 3.0400327172 3.0418609835 3.2227537436 3.2184012671 
3.1284431015 3.2203927785 3.1224163575 3.2236359919 3.2233393624 3.2138186261 3.1109016981 3.1071481931 3.2208232194 
3.1023453521 3.0924021214 3.0933326759 3.1176620697 3.2212373867 3.2236082871 3.2246123347 3.0864487302 3.0880125338 
3.0984680854 3.0240493101 3.0285107271 3.0003938653 3.0029118181 2.9822023291 2.9930113439 3.007350878 3.0402309299 
3.0617173722 3.041994301 3.102707643 3.0623524616 3.0797671989 3.0985392871 3.1074040951 3.1193936262 3.128047651 
3.1400764116 3.1468620829 3.1530043683 3.1540290442 3.1522167459 3.1485526482 3.1421237236 3.1360835023 3.130462356 
3.1245472934 3.1186509675 3.1135727574 3.0962235823 3.0924523001 3.0867502567 3.0789832394 3.0679490591 3.0576703409 
3.0487108866 3.0415403312 3.0276811666 3.0975728572 3.1211078237 3.1364980918 3.1489235608 3.1564407544 3.1676309345 
3.1804210581 3.1903519159 3.1983908079 3.2081212918 3.214074117 3.2192572562 3.2200284698 3.2256537453 3.2278707862 
3.2277702306 3.2284904266 3.2323925373 3.0918066144 3.0910291984 3.0893263827 3.0846751335 3.0771200826 3.0670696162 
3.0576291192 3.0481252729 3.0408098327 3.0428405983 3.228795498 3.2269703471 3.1279334418 3.2279921325 3.1214848567 
3.2291676382 3.0819470703 3.2230961204 3.1097115374 3.1058242863 3.2277984628 3.1008148978 3.0911137145 3.0916221324 
3.1161311786 3.2278422997 3.2291995769 3.1815962062 3.087344527 3.0914377457 3.0975838285 3.0236711715 3.0306983449 
3.0013502551 3.0085967736 2.9867273993 2.9949914313 3.008392723 3.0423463604 3.0631502273 3.0430829744 3.1017250138 
3.064729812 3.0820148096 3.0989025095 3.108673835 3.1213179461 3.1316900907 3.1428622962 3.1503999077 3.1567479314 
3.1567601986 3.1535948003 3.1487815481 3.1416071334 3.1352974615 3.1293677426 3.1236715336 3.1177409493 3.1124158983 
3.0953184262 3.0914952775 3.0859782687 3.0782184981 3.067459331 3.0573619023 3.0486269046 3.0412384713 3.0282877001 
3.0991075441 3.1231321875 3.1382079901 3.1515801119 3.1608084954 3.1722126768 3.1839271518 3.189852265 3.2012099347 
3.2139025408 3.2232743859 3.2276427386 3.2294960837 3.2342870596 3.2359281062 3.2353477515 3.2357007637 3.2264850255 
3.0905120077 3.0910774618 3.0880543561 3.0832197393 3.0754349212 3.0656327396 3.0562881913 3.0469927283 3.0395563391 
3.0420628596 3.2359482092 3.235617289 3.1270552777 3.2356940585 3.1205780187 3.2361218404 3.0898523757 3.2323089951 
3.108670388 3.1048229571 3.2352425151 3.0996583948 3.0900134602 3.0907892193 3.1150418744 3.2353037491 3.2361240232 
3.0799705898 3.0904107249 3.0912385144 3.0968139501 3.0225048561 3.0318720739 3.0028149158 3.0104339576 2.9877126203 
2.9964815521 3.0098724593 3.0433210963 3.0651259956 3.0440571933 3.1008083967 3.0660099058 3.0839304249 3.100116391 
3.1102826578 3.1230317198 3.1341432605 3.1455324978 3.153299685 3.1600860539 3.1590790309 3.1546990315 3.1486518786 
3.1409220834 3.1344774799 3.1284345641 3.1227470458 3.1167627693 3.1113963351 3.0945098729 3.0906447524 3.0852843393 
3.0775327582 3.0670086366 3.056976494 3.0484317184 3.0408325533 3.0290545861 3.100651839 3.1250078525 3.1402342051 
3.1536130324 3.1628255301 3.1747412981 3.1877475892 3.1951229897 3.2067329026 3.2189789765 3.2298635754 3.2355817811 
3.2379445219 3.2437125044 3.244626826 3.2432593739 3.2432556676 3.0952116076 3.0872427856 3.0872704926 3.0848542386 
3.0799900048 3.0724475489 3.0630380309 3.0539074354 3.0449781247 3.0375449019 3.0399223878 3.2433488573 3.2441295279 
3.1261261779 3.2441526618 3.1196608502 3.2428718495 3.0847226795 3.2408777973 3.1077125107 3.1038716093 3.2429789358 
3.0988567056 3.0868251393 3.0868834888 3.1140105424 3.2428984882 3.2430798497 3.0831929497 3.0869527556 3.0875906658 
3.0961306816 3.0215046373 3.0322877584 3.0030437919 3.0100973008 2.987354693 2.9963678522 3.0099380509 3.0433953054 
3.0656365801 3.0447290762 3.1001036526 3.0668311398 3.0850573922 3.101230929 3.111669705 3.1245699487 3.1360903631 
3.1476699979 3.1555835149 3.1627159307 3.1610116116 3.1555932019 3.148605689 3.1405537338 3.1340834104 3.127989956 
3.122143871 3.1161251204 3.1107065473 3.0938283465 3.0899635216 3.0847399283 3.0769821331 3.0666169748 3.0565404397 
3.0481285253 3.040391215 3.0296369192 3.1011674539 3.1258036753 3.1413534051 3.1548188626 3.1643792513 3.17634808 
3.1892554453 3.1973604467 3.2094062443 3.2228043891 3.2344014363 3.241317697 3.2451290322 3.2513249815 3.2526376061 
3.2519916975 3.2513889171 3.0810501037 3.0853922827 3.0844132922 3.0815711114 3.0770823662 3.0701077379 3.0608651885 
3.0518445175 3.0432743423 3.0358107235 3.0383628702 3.2512753589 3.2526117339 3.1256021831 3.2527884708 3.1190514801 
3.2611489077 3.0849159361 3.2485477271 3.1070379922 3.1031925175 3.2514722012 3.098052366 3.0834849664 3.0838807292 
3.1132693857 3.2510840584 3.2511586395 3.0849122044 3.085014569 3.0847841054 3.0956900906 3.021121268 3.0327349813 
3.0032998316 3.0102235679 2.9876429947 2.9964519778 3.0099722563 3.0435109948 3.065865428 3.0452984016 3.0997715869 
3.067476114 3.0857126768 3.1019233881 3.112600569 3.1256917511 3.1375702968 3.1492815352 3.157416628 3.164827649 
3.1626350242 3.1563268512 3.1486568435 3.140468664 3.1339730045 3.1278111658 3.1217893152 3.1158252923 3.1103159652 
3.0934102526 3.0895317586 3.0844278198 3.076650193 3.0664199968 3.0561807706 3.0478513491 3.0400473101 3.0299348691 
3.1014204246 3.1262092563 3.1419774342 3.1555129679 3.1651727956 3.1772054208 3.1901038928 3.1988424313 3.211091167 
3.224905508 3.2371020094 3.2454330883 3.2504832992 3.2575975157 3.2600505723 3.2596314903 3.2593308615 3.0852634662 
3.0846234788 3.0836036437 3.0805241411 3.0761531195 3.0693508751 3.0600594287 3.051054765 3.0426606198 3.0351322174 
3.0376842976 3.2595749896 3.2593781407 3.1252798856 3.2600385518 3.1187436465 3.2690490814 3.0847232589 3.2542875375 
3.1066435931 3.1028996747 3.2593876807 3.0975865341 3.0824427343 3.0830466257 3.1128715787 3.2590088699 3.2596918101 
3.0871249155 3.0841403823 3.0844374798 3.0954625082 3.0210171985 3.033181839 3.0036067693 3.010510174 2.9880253986 
2.9967409633 3.010249995 3.0437995305 3.0662063232 3.0458094806 3.099447057 3.067958219 3.0864640985 3.1026183191 
3.1135034473 3.1267139987 3.1388975529 3.1506809844 3.1592114722 3.1667045498 3.1641969876 3.1571015011 3.1489354547 
3.1405543924 3.1339938578 3.1277919245 3.1219178059 3.1158065648 3.1102281692 3.0931678302 3.0893243476 3.0842805893 
3.0764584616 3.0663726924 3.0560664431 3.0477842176 3.0399527724 3.0301424937 3.1017808273 3.126610879 3.1425104799 
3.1560599236 3.1657960055 3.1778521721 3.1906376975 3.1997484714 3.2122278046 3.226268165 3.2387342546 3.2479559079 
3.2540225855 3.2617959162 3.2650380553 3.2654627772 3.266086462 3.0836017673 3.0826737205 3.0824454548 3.0792957684 
3.0748581109 3.068172306 3.0590449357 3.050240924 3.0419936382 3.0345529483 3.0370649837 3.2660876689 3.2639975355 
3.1254383038 3.2660363832 3.1188072986 3.2731340004 3.0813976044 3.258223289 3.1065435207 3.1028366366 3.2657412052 
3.0972962215 3.0813752427 3.0815915366 3.1128016629 3.2655812127 3.266095855 3.0843898417 3.0818383383 3.0828007914 
3.0953946239 3.0209157729 3.0335574648 3.0038766059 3.0108116998 2.9883909016 2.9970248112 3.0105591744 3.0441371575 
3.0666050921 3.0461710813 3.0994527046 3.06829786 3.0869495523 3.1032932492 3.1143990635 3.1276392763 3.1400296887 
3.1520275463 3.1608316871 3.1685268162 3.1658933353 3.1581908302 3.1495544675 3.1409330197 3.134314726 3.1280374731 
3.1221502991 3.1159889899 3.1103364443 3.093163808 3.0893059152 3.0842958779 3.0764608664 3.0664514032 3.0561181124 
3.0478792549 3.0400143655 3.0304284284 3.1022100673 3.1270512446 3.1430222806 3.1565498206 3.1663439538 3.178394425 
3.191083753 3.2004300692 3.2130781125 3.2272269624 3.2397946282 3.2493129966 3.256015921 3.2643990057 3.268102443 
3.2695538585 3.2703589975 3.0789413083 3.0791767422 3.0788489726 3.0768206639 3.0726766643 3.0662936054 3.0573047421 
3.0487062852 3.0407559922 3.0334808522 3.0359750797 3.270709235 3.2669136421 3.1256977561 3.2694039466 3.1189858138 
3.281039676 3.07875476 3.2605453029 3.1067043399 3.1029432628 3.2699507248 3.0971746274 3.0783866795 3.0781590542 
3.1128324982 3.2700408089 3.270977232 3.0792415433 3.0783292894 3.0787200539 3.095580941 3.0209955332 3.0338545744 
3.0040604389 3.0111057639 2.9887852487 2.9972915378 3.0108582298 3.0445100045 3.0669991332 3.0463643224 3.0997002421 
3.0684983462 3.0872453072 3.1037175929 3.115026199 3.1283153253 3.1409294774 3.1531082006 3.162536302 3.1703863219 
3.1678249228 3.1596900133 3.1505463634 3.1416581398 3.1349502889 3.1285661666 3.122568618 3.1161965739 3.1105566263 
3.09335074 3.0894798719 3.084469395 3.0766015301 3.0666361332 3.0562673997 3.0480346721 3.0401533969 3.0308585257 
3.1027031109 3.127508766 3.1435679967 3.1570733358 3.1668905049 3.1789223252 3.1915143994 3.2010215157 3.2137945509 
3.2279181689 3.2405740877 3.2502002199 3.2570865031 3.2659533583 3.2698363893 3.2717752094 3.2730164913 3.0760061976 
3.0772840618 3.0766137624 3.0751321421 3.0711820331 3.0649448971 3.0558776668 3.0473229651 3.0396470052 3.0325675829 
3.0348996066 3.2736176078 3.268647667 3.1261522335 3.2714143933 3.1193907189 3.2858196527 3.0765690176 3.2617259103 
3.1069572565 3.1032932619 3.2724569123 3.0973534351 3.0765983103 3.0763348725 3.1130271233 3.2726033404 3.2738703365 
3.074687939 3.0762900307 3.076956965 3.0959323534 3.0212165519 3.0340609041 3.0041480825 3.0112337139 2.9891779865 
2.9975754508 3.0111748293 3.0451655736 3.0675113501 3.0464775596 3.1001145154 3.0685060736 3.0872718733 3.1039194664 
3.1154364855 3.1287599466 3.1415074034 3.1541161015 3.1636185194 3.1722776331 3.1699487095 3.1616339406 3.1518298868 
3.1426059304 3.1357278202 3.1292250223 3.1231846273 3.1167961965 3.1110254062 3.0936897612 3.0897818079 3.0847580235 
3.0768411746 3.0668586256 3.0564551661 3.048210276 3.0403234159 3.0310142695 3.1033329737 3.1280527301 3.1442111808 
3.1576977962 3.167526664 3.1795401878 3.1920325454 3.2016434537 3.2145410437 3.2285539964 3.2412370102 3.2509355648 
3.2577812229 3.2666302155 3.2709511748 3.2730583373 3.2745250365 3.0758167634 3.0767363685 3.0757718506 3.0742775743 
3.0703473604 3.0641456699 3.0550717486 3.0465671123 3.0390410993 3.0322067583 3.0342459862 3.2751427456 3.2696411887 
3.1267903356 3.2726821208 3.1198698343 3.2881186789 3.0756613439 3.2623753147 3.107388416 3.1036619348 3.2737366296 
3.0977207941 3.0756291154 3.0756432111 3.1135727331 3.2740763757 3.2755983431 3.0735935033 3.0758265591 3.0762600782 
3.0963456983 3.021543331 3.0342326251 3.0040857513 3.0110594721 2.9895564784 2.9978876091 3.0115374772 3.0459918399 
3.0681899081 3.0462594601 3.1005473471 3.0682870194 3.0871700175 3.1040201969 3.1157472264 3.1291028954 3.1419850315 
3.1550272587 3.1651372407 3.1739314859 3.1720712642 3.1638915581 3.1532553674 3.1435870362 3.1364774746 3.1298532294 
3.1237850128 3.1173653057 3.1115437321 3.0940515159 3.0901066128 3.0850484661 3.0770906164 3.0670381245 3.0566251045 
3.0483466893 3.0404745746 3.030806033 3.1041723057 3.1287833182 3.1450115019 3.1584958245 3.1683231377 3.1803124991 
3.1927427495 3.2024209309 3.2154781931 3.2292839256 3.2419138645 3.2516798237 3.258386647 3.2671173427 3.271667247 
3.2738328117 3.2752246025 3.0738608732 3.0764781858 3.075608493 3.0736223296 3.0697215496 3.0637079701 3.0547685952 
3.0463447927 3.0389190439 3.0322116774 3.0342805448 3.2757806379 3.2702290842 3.127439976 3.2734301152 3.1204185283 
3.2868035525 3.0756299324 3.2628646206 3.107825655 3.1040315712 3.2744919246 3.0981538393 3.0750617902 3.0753865956 
3.1141198459 3.274752705 3.2768540458 3.0743784811 3.076025415 3.0759925329 3.0967505467 3.0219373876 3.0345071824 
3.0041080409 3.0108882572 2.9900501729 2.9982617617 3.0119712306 3.046993359 3.0691962951 3.0460321326 3.1009389184 
3.0680677328 3.0870025498 3.1040996007 3.1160644525 3.1293842924 3.1423946838 3.1556963765 3.1666426031 3.1753682412 
3.1742322302 3.1664630139 3.1548280393 3.1445066973 3.1370627925 3.1303149469 3.1241805848 3.1176457193 3.1119546218 
3.0943966372 3.0904687816 3.0853290269 3.0773789162 3.0671955232 3.0568091542 3.0484690849 3.0406592783 3.0302577914 
3.1053537526 3.1298335583 3.146014391 3.1595140416 3.1693285692 3.1813191514 3.1936980471 3.203450981 3.2166953135 
3.2302029022 3.2427824693 3.25252287 3.2590808508 3.2676227301 3.2722986427 3.2745447167 3.2758461242 3.0779328234 
3.0761558937 3.0756774095 3.0736415076 3.0698550538 3.0640004442 3.0551706712 3.0468322865 3.0395575007 3.0329135972 
3.0348641315 3.2768924132 3.2707855496 3.1279752265 3.2740164698 3.1208885217 3.2695562697 3.0760040557 3.2633877014 
3.108142534 3.1043331687 3.2752351908 3.0986063451 3.0751452756 3.0754305884 3.1145231679 3.2755563116 3.278368726 
3.0765879253 3.0759794908 3.0760550937 3.0972546696 3.0224511382 3.0345907805 3.0042409598 3.0110464923 2.990860229 
2.9987772951 3.0125664527 3.0482912104 3.0704308283 3.0457695364 3.1014489111 3.0676170673 3.0866111473 3.1039018296 
3.115988787 3.1292194841 3.142208401 3.1561296542 3.1673210287 3.1767479965 3.1764928682 3.1694850156 3.1566942267 
3.1453404858 3.1374747285 3.1305693476 3.1245638495 3.118371607 3.1126629089 3.0949278724 3.0910575818 3.0857576644 
3.0778906247 3.0674957008 3.0571136747 3.0486542601 3.0409080817 3.0294666922 3.1066443232 3.1311154517 3.1471546326 
3.1606495537 3.1704642076 3.1823448791 3.1947782186 3.2046462607 3.2180026116 3.2312884969 3.2436431958 3.2537529518 
3.260088854 3.2684005737 3.2735852984 3.2760122029 3.2768819316 3.0744459985 3.0761424912 3.0759108942 3.0746249923 
3.0708991185 3.0649656647 3.0562426129 3.0480685765 3.0407277951 3.0341336904 3.0362622734 3.2788673281 3.2715803494 
3.128302636 3.2752378403 3.1213491026 3.1595058915 3.0757419797 3.2641977 3.1087098716 3.1048850491 3.2765652816 
3.0992309612 3.0758934714 3.0759494599 3.115436892 3.2770483654 3.2887648314 3.0755468488 3.0755416056 3.0763012965 
3.0979718395 3.0229359678 3.0333481047 3.0032779559 3.0108745231 2.9906579151 2.9987031693 3.012821801 3.0486964406 
3.0711403051 3.044721932 3.1024114209 3.0659730305 3.0852263006 3.1027171648 3.1149279987 3.1283555039 3.1409204246 
3.1563886141 3.1672466898 3.1778470228 3.1793138081 3.1730842842 3.1590963906 3.1464485598 3.1379656031 3.130845757 
3.1253199258 3.1198377422 3.11384533 3.0956623651 3.0917922651 3.0863090737 3.0784505784 3.0678073066 3.0574087314 
3.0487645977 3.0410623936 3.028274274 3.10721052 3.1319868995 3.1479347172 3.1612641442 3.1712395567 3.1831185583 
3.1956753789 3.2057716153 3.2192257842 3.2324731105 3.2453849693 3.2549264153 3.2616691895 3.2701426132 3.2769208508 
3.278636349 3.2795126916 3.0696443302 3.0778742943 3.077506331 3.0763703342 3.0725399412 3.0663075286 3.0577442082 
3.0498195216 3.0421483243 3.0355678123 3.0380590837 3.2813816938 3.2738147168 3.129117465 3.2782126662 3.122170938 
3.0567959896 3.0756079208 3.265638845 3.10964773 3.105512774 3.2789988532 3.1000937192 3.0774668778 3.077704987 
3.1168211578 3.2793536506 3.207114481 3.0742780308 3.0768995459 3.0776993938 3.0985464573 3.0231394452 3.0324651102 
3.0010259413 3.0057692423 2.9898204178 2.9975697834 3.0121024867 3.0473745606 3.070648318 3.0426940454 3.1026126824 
3.0644653593 3.0837630757 3.1016006803 3.1133486752 3.1270329865 3.1393199386 3.157055543 3.1686450122 3.1805129869 
3.1844325975 3.1779393458 3.1631705142 3.1476693151 3.1385269173 3.1321021739 3.1260939018 3.1195414581 3.1145310147 
3.0963652744 3.0924096881 3.0868366489 3.07919183 3.0680529872 3.0574316585 3.0485618147 3.0409681542 3.0262066065 
3.1069181223 3.1321026469 3.1484801985 3.1619214987 3.172099283 3.1839358764 3.1964516341 3.207510298 3.2214736473 
3.2352554426 3.2488850518 3.2613899573 3.2658076337 3.2739819172 3.2793790441 3.2786621574 3.2828767128 3.0815090606 
3.0806295663 3.080285837 3.0792502103 3.0745787173 3.0686717814 3.0596677695 3.0519091917 3.0440756482 3.0372068631 
3.0406190975 3.2167631906 3.2772623404 3.1294180274 3.2793399051 3.1225945366 3.0856046866 3.0799773514 3.2691812536 
3.1098600979 3.1059361367 3.2793006546 3.1007725576 3.0804126911 3.0809722732 3.117013822 3.2783513235 3.0663090357 
3.0789150912 3.0793472078 3.0809329097 3.0989360879 3.0256110816 3.0343908469 3.004574987 3.0085906946 2.9901134254 
2.9988168943 3.0141087794 3.0466783019 3.0699021925 3.0461824187 3.102888353 3.0664894156 3.0871961921 3.1021467709 
3.115528095 3.12896659 3.1413484515 3.1612939621 3.1829841301 3.1875758012 3.1884702834 3.1803659398 3.1634779431 
3.1493621523 3.1393422279 3.1324965098 3.1252383979 3.1175981758 3.112356212 3.0959765231 3.0936750945 3.0876148159 
3.0783385078 3.0682657661 3.0569879414 3.0475629644 3.0391258266 3.0237936137 3.1040581416 3.1318916848 3.1529010317 
3.1667923713 3.1758881517 3.1928927494 3.2017234909 3.2124416969 3.23050933 3.2426297546 3.2584557662 3.2677134119 