# vtk DataFile Version 4.2
vtk output
ASCII
DATASET POLYDATA
POINTS 6413 float
2513.28 -3003.14 5800 2522.86 -3008.37 5800 2534.05 -3003.14 5800 
2498.25 -2990.14 5800 2551.86 -2994.82 5800 2561.88 -2990.14 5800 
2491 -2977.14 5800 2493.86 -2984.4 5800 2580.86 -2981.27 5800 
2589.71 -2977.14 5800 2485.88 -2964.14 5800 2609.86 -2967.73 5800 
2617.54 -2964.14 5800 2480.76 -2951.14 5800 2638.86 -2954.18 5800 
2645.38 -2951.14 5800 2475.65 -2938.14 5800 2667.87 -2940.63 5800 
2673.21 -2938.13 5800 2470.53 -2925.14 5800 2696.87 -2927.08 5800 
2701.04 -2925.13 5800 2465.41 -2912.14 5800 2725.87 -2913.53 5800 
2727.58 -2912.13 5800 2460.29 -2899.14 5800 2464.86 -2910.75 5800 
2739.64 -2899.13 5800 2455.17 -2886.14 5800 2746.22 -2886.13 5800 
2450.05 -2873.14 5800 2752.02 -2873.13 5800 2444.93 -2860.14 5800 
2754.87 -2866.73 5800 2757.82 -2860.13 5800 2439.82 -2847.13 5800 
2763.63 -2847.12 5800 2434.7 -2834.13 5800 2435.87 -2837.1 5800 
2769.43 -2834.12 5800 2429.58 -2821.13 5800 2775.24 -2821.12 5800 
2424.46 -2808.13 5800 2781.04 -2808.12 5800 2419.34 -2795.13 5800 
2783.88 -2801.75 5800 2786.84 -2795.12 5800 2414.22 -2782.13 5800 
2792.65 -2782.12 5800 2409.11 -2769.13 5800 2798.45 -2769.12 5800 
2403.53 -2756.13 5800 2406.87 -2763.45 5800 2804.25 -2756.12 5800 
2387 -2743.13 5800 2810.06 -2743.11 5800 2368.58 -2730.13 5800 
2377.87 -2736.69 5800 2812.89 -2736.78 5800 2815.86 -2730.11 5800 
2350.15 -2717.13 5800 2821.67 -2717.11 5800 2331.72 -2704.13 5800 
2348.87 -2716.23 5800 2827.47 -2704.11 5800 2313.3 -2691.13 5800 
2319.87 -2695.77 5800 2833.27 -2691.11 5800 2294.87 -2678.13 5800 
2839.08 -2678.11 5800 2276.44 -2665.13 5800 2290.87 -2675.31 5800 
2841.89 -2671.8 5800 2844.88 -2665.11 5800 2258.02 -2652.13 5800 
2261.87 -2654.85 5800 2850.69 -2652.11 5800 2239.59 -2639.13 5800 
2856.49 -2639.1 5800 2220.21 -2626.13 5800 2232.87 -2634.39 5800 
2862.29 -2626.1 5800 2199.03 -2613.13 5800 2203.87 -2615.99 5800 
2868.1 -2613.1 5800 2177.04 -2600.13 5800 2870.9 -2606.83 5800 
2873.75 -2600.1 5800 2155.05 -2587.12 5800 2174.88 -2598.84 5800 
2881.85 -2587.1 5800 2133.06 -2574.12 5800 2145.88 -2581.7 5800 
2893.09 -2574.1 5800 2111.07 -2561.12 5800 2116.88 -2564.56 5800 
2899.9 -2567.72 5800 2906.85 -2561.1 5800 2089.08 -2548.12 5800 
2920.48 -2548.1 5800 2067.09 -2535.12 5800 2087.88 -2547.41 5800 
2928.91 -2540.05 5800 2934.11 -2535.09 5800 2045.1 -2522.12 5800 
2058.88 -2530.27 5800 2947.74 -2522.09 5800 2027.92 -2509.12 5800 
2029.88 -2513.12 5800 2957.91 -2512.39 5800 2961.37 -2509.09 5800 
2024.68 -2496.12 5800 2975 -2496.09 5800 2025.04 -2483.12 5800 
2986.91 -2484.72 5800 2988.63 -2483.09 5800 2025.41 -2470.12 5800 
3002.26 -2470.09 5800 2025.78 -2457.12 5800 3015.89 -2457.08 5800 
2026.14 -2444.12 5800 3015.92 -2457.06 5800 3029.52 -2444.08 5800 
2026.51 -2431.12 5800 3043.15 -2431.08 5800 2026.88 -2418.12 5800 
3044.92 -2429.39 5800 3056.78 -2418.08 5800 2027.24 -2405.11 5800 
3070.41 -2405.08 5800 2027.61 -2392.11 5800 3073.92 -2401.73 5800 
3084.04 -2392.08 5800 2027.97 -2379.11 5800 3097.67 -2379.08 5800 
2028.34 -2366.11 5800 3102.92 -2374.06 5800 3111.3 -2366.07 5800 
2028.71 -2353.11 5800 3124.93 -2353.07 5800 2029.07 -2340.11 5800 
3131.93 -2346.39 5800 3138.56 -2340.07 5800 2029.44 -2327.11 5800 
3152.19 -2327.07 5800 2029.81 -2314.11 5800 3160.93 -2318.73 5800 
3165.82 -2314.07 5800 2029.89 -2311.04 5800 2030.17 -2301.11 5800 
3178.75 -2301.07 5800 2030.54 -2288.11 5800 3183.62 -2288.07 5800 
2030.9 -2275.1 5800 3186.43 -2275.06 5800 2031.27 -2262.1 5800 
3187.93 -2262.06 5800 2031.64 -2249.1 5800 3189.43 -2249.06 5800 
2032 -2236.1 5800 3189.94 -2244.68 5800 3190.93 -2236.06 5800 
2032.37 -2223.1 5800 3192.43 -2223.06 5800 2032.74 -2210.1 5800 
3193.94 -2210.06 5800 2033.1 -2197.1 5800 3195.44 -2197.06 5800 
2033.47 -2184.1 5800 3196.94 -2184.06 5800 2033.83 -2171.1 5800 
3198.44 -2171.06 5800 2034.2 -2158.1 5800 3199.94 -2158.06 5800 
2034.57 -2145.09 5800 3201.44 -2145.05 5800 2034.93 -2132.09 5800 
3202.95 -2132.05 5800 2035.3 -2119.09 5800 3204.45 -2119.05 5800 
2035.67 -2106.09 5800 3205.95 -2106.05 5800 2036.09 -2093.09 5800 
3207.45 -2093.05 5800 2036.58 -2080.09 5800 3208.95 -2080.05 5800 
2037.07 -2067.09 5800 3210.45 -2067.05 5800 2037.55 -2054.09 5800 
3211.95 -2054.05 5800 2037.75 -2041.09 5800 3213.46 -2041.05 5800 
2035.05 -2028.09 5800 3214.96 -2028.05 5800 2032.21 -2015.08 5800 
3216.46 -2015.04 5800 2029.32 -2002.08 5800 2029.92 -2004.82 5800 
3217.96 -2002.04 5800 2026.46 -1989.08 5800 3218.96 -1993.41 5800 
3219.46 -1989.04 5800 2023.61 -1976.08 5800 3220.96 -1976.04 5800 
2020.75 -1963.08 5800 3222.46 -1963.04 5800 2017.9 -1950.08 5800 
3223.56 -1950.04 5800 2015.04 -1937.08 5800 3224.66 -1937.04 5800 
2012.19 -1924.08 5800 3225.71 -1924.04 5800 2009.42 -1911.08 5800 
3226.77 -1911.04 5800 2006.6 -1898.08 5800 3227.82 -1898.03 5800 
2003.72 -1885.08 5800 3228.87 -1885.03 5800 2000.77 -1872.07 5800 
2000.93 -1872.77 5800 3229.92 -1872.03 5800 1997.92 -1859.07 5800 
3230.98 -1859.03 5800 1995.06 -1846.07 5800 3232.03 -1846.03 5800 
1992.21 -1833.07 5800 3233.08 -1833.03 5800 1989.36 -1820.07 5800 
3234.13 -1820.03 5800 1986.56 -1807.07 5800 3235.19 -1807.03 5800 
1983.83 -1794.07 5800 3236.24 -1794.03 5800 1981.04 -1781.07 5800 
3237.29 -1781.03 5800 1978.18 -1768.07 5800 3238.34 -1768.02 5800 
1975.25 -1755.07 5800 3239.39 -1755.02 5800 1972.25 -1742.07 5800 
3240.45 -1742.02 5800 1970.2 -1729.07 5800 1971.93 -1740.72 5800 
3241.5 -1729.02 5800 1968.93 -1716.06 5800 3242.55 -1716.02 5800 
1971.65 -1703.06 5800 3243.6 -1703.02 5800 1971.94 -1702.01 5800 
1976.06 -1690.06 5800 3244.66 -1690.02 5800 1979.23 -1677.06 5800 
3245.71 -1677.02 5800 1983 -1664.06 5800 3246.76 -1664.02 5800 
1986.75 -1651.06 5800 3247.81 -1651.02 5800 1990.48 -1638.06 5800 
3247.99 -1648.87 5800 3248.78 -1638.01 5800 1994.2 -1625.06 5800 
3249.7 -1625.01 5800 1997.89 -1612.06 5800 3250.6 -1612.01 5800 
2000.95 -1601.25 5800 2001.58 -1599.05 5800 3251.47 -1599.01 5800 
2005.36 -1586.05 5800 3260.44 -1586.01 5800 2009.13 -1573.05 5800 
3263.73 -1573.01 5800 2012.91 -1560.05 5800 3264.85 -1560.01 5800 
2016.68 -1547.05 5800 3265.53 -1547.01 5800 2020.46 -1534.05 5800 
3267.03 -1534.01 5800 2024.23 -1521.05 5800 3267.59 -1521 5800 
2028.01 -1508.05 5800 3268.01 -1508 5800 2029.95 -1497.59 5800 
2030.41 -1495.05 5800 3268.43 -1495 5800 2031.35 -1482.04 5800 
3268.85 -1482 5800 2032.29 -1469.04 5800 3269.27 -1469 5800 
2033.22 -1456.04 5800 3269.7 -1456 5800 2034.16 -1443.04 5800 
3270.12 -1443 5800 2035.25 -1430.04 5800 3270.54 -1430 5800 
2036.62 -1417.04 5800 3270.96 -1417 5800 2037.95 -1404.04 5800 
3271.38 -1404 5800 2039.22 -1391.04 5800 3271.8 -1390.99 5800 
2040.61 -1378.04 5800 3272.22 -1377.99 5800 2042.03 -1365.03 5800 
3272.64 -1364.99 5800 2043.45 -1352.03 5800 3273.07 -1351.99 5800 
2044.86 -1339.03 5800 3273.49 -1338.99 5800 2045.86 -1326.03 5800 
3273.91 -1325.99 5800 2046.74 -1313.03 5800 3274.33 -1312.99 5800 
2047.61 -1300.03 5800 3274.75 -1299.99 5800 2048.49 -1287.03 5800 
3275.17 -1286.99 5800 2049.37 -1274.03 5800 3275.59 -1273.98 5800 
2050.25 -1261.03 5800 3276.02 -1260.98 5800 2051.13 -1248.03 5800 
3276.44 -1247.98 5800 2051.98 -1235.02 5800 3276.86 -1234.98 5800 
2050.57 -1222.02 5800 3277.02 -1230.03 5800 3277.28 -1221.98 5800 
2049.42 -1209.02 5800 3277.7 -1208.98 5800 2048.46 -1196.02 5800 
3278.12 -1195.98 5800 2047.64 -1183.02 5800 3278.54 -1182.98 5800 
2046.94 -1170.02 5800 3278.97 -1169.98 5800 2046.34 -1157.02 5800 
3279.4 -1156.98 5800 2045.81 -1144.02 5800 3279.84 -1143.97 5800 
2045.35 -1131.02 5800 3280.28 -1130.97 5800 2044.82 -1118.02 5800 
3280.72 -1117.97 5800 2043.63 -1105.01 5800 3281.25 -1104.97 5800 
2042.45 -1092.01 5800 3281.68 -1091.97 5800 2040.83 -1079.01 5800 
3281.89 -1078.97 5800 2037.79 -1066.01 5800 3282.34 -1065.97 5800 
2038.92 -1053.01 5800 3282.78 -1052.97 5800 2039.7 -1040.01 5800 
3283.2 -1039.97 5800 2041.24 -1027.01 5800 3283.62 -1026.97 5800 
2043.3 -1014.01 5800 3284.03 -1013.96 5800 2045.36 -1001.01 5800 
3284.44 -1000.96 5800 2047.42 -988.005 5800 3284.9 -987.963 5800 
2049.49 -975.004 5800 3285.37 -974.962 5800 2051.55 -962.003 5800 
3285.84 -961.961 5800 2053.61 -949.002 5800 2556.36 -948.985 5800 
2581.02 -954.604 5800 2594.17 -948.984 5800 3285.62 -948.96 5800 
2055.67 -936.001 5800 2536.65 -935.984 5800 2552.01 -947.952 5800 
2610.02 -941.258 5800 2639.02 -936.65 5800 2648.94 -935.981 5800 
3284.97 -935.959 5800 2057.71 -923 5800 2519.43 -922.984 5800 
2523.02 -925.364 5800 2668.02 -934.765 5800 2697.02 -933.737 5800 
2726.02 -932.698 5800 2755.02 -924.192 5800 2755.63 -922.976 5800 
3284.46 -922.958 5800 2059 -914.956 5800 2059.79 -909.999 5800 
2502.09 -909.984 5800 2762.1 -909.975 5800 3282.37 -909.957 5800 
2061.85 -896.998 5800 2481 -896.983 5800 2494.02 -904.26 5800 
2768.58 -896.974 5800 3279.68 -896.956 5800 2063.91 -883.997 5800 
2464.16 -883.983 5800 2465.02 -884.501 5800 2775.05 -883.972 5800 
3277.04 -884.237 5800 3276.99 -883.955 5800 2065.97 -870.996 5800 
2442.04 -870.983 5800 2781.53 -870.971 5800 3274.29 -870.954 5800 
2068.03 -857.995 5800 2424.17 -857.982 5800 2436.02 -867.012 5800 
2784.03 -865.942 5800 2788 -857.97 5800 3271.6 -857.953 5800 
2070.09 -844.994 5800 2411.95 -844.982 5800 2794.47 -844.969 5800 
3268.91 -844.952 5800 2072.12 -831.993 5800 2404.48 -831.981 5800 
2407.02 -838.121 5800 2800.95 -831.967 5800 3266.21 -831.951 5800 
2074.13 -818.992 5800 2396.83 -818.98 5800 2807.42 -818.966 5800 
3263.52 -818.95 5800 2076.15 -805.99 5800 2387.51 -805.98 5800 
2813.03 -807.693 5800 2813.91 -805.965 5800 3260.83 -805.95 5800 
2078.12 -792.989 5800 2378.2 -792.979 5800 2822.87 -792.964 5800 
3257.93 -792.949 5800 2080.09 -779.988 5800 2368.88 -779.978 5800 
2378.02 -792.736 5800 2835.49 -779.962 5800 3254.62 -779.948 5800 
2082.05 -766.987 5800 2359.56 -766.978 5800 2842.04 -773.483 5800 
2849.16 -766.961 5800 3251.24 -766.947 5800 2084.01 -753.986 5800 
[...]
POINT_DATA 6413
SCALARS Pressure double
LOOKUP_TABLE default
3.0932710339 3.0932710339 3.0932710339 3.0932710339 3.0932710339 3.0932710339 3.0932710339 3.0932710339 3.0932710339 
3.0932710339 3.0932710339 3.0932710339 3.0932710339 3.0932710339 3.0932710339 3.0932710339 3.0932710339 3.0932710339 
3.0932710339 3.0932710339 3.0932710339 3.0932710339 3.0932710339 3.0932710339 3.0932710339 3.0932710339 3.0932710339 
3.0932710339 3.0932710339 3.0932710339 3.0932710339 3.0932710339 3.0932710339 3.0932710339 3.0932710339 3.0932710339 
3.0932710339 3.0932710339 3.0932710339 3.0932710339 3.0932710339 3.0932710339 3.0932710339 3.0932710339 3.0932710339 
3.0932710339 3.0932710339 3.0932710339 3.0932710339 3.0932710339 3.0932710339 3.0932710339 3.0932710339 3.0932710339 
3.0932710339 3.0932710339 3.0932710339 3.0932710339 3.0932710339 3.0932710339 3.0932710339 3.0932710339 3.0932710339 
3.0932710339 3.0932710339 3.0932710339 3.0932710339 3.0932710339 3.0932710339 3.0932710339 3.0932710339 3.0932710339 
3.0932710339 3.0932710339 3.0932710339 3.0932710339 3.0932710339 3.0932710339 3.0932710339 3.0932710339 3.0932710339 
3.0932710339 3.0932710339 3.0932710339 3.0932710339 3.0932710339 3.0932710339 3.0932710339 3.0932710339 3.0932710339 
3.0932710339 3.0932710339 3.0932710339 3.0932710339 3.0932710339 3.0932710339 3.0932710339 3.0932710339 3.0932710339 
3.0932710339 3.0932710339 3.0932710339 3.0932710339 3.0932710339 3.0932710339 3.0932710339 3.0932710339 3.0932710339 
3.0932710339 3.0932710339 3.0932710339 3.0932710339 3.0932710339 3.0932710339 3.0932710339 3.0932710339 3.0932710339 
3.0932710339 3.0932710339 3.0932710339 3.0932710339 3.0932710339 3.0932710339 3.0932710339 3.0932710339 3.0932710339 
3.0932710339 3.0932710339 3.0932710339 3.0932710339 3.0932710339 3.0932710339 3.0932710339 3.0932710339 3.0932710339 
3.0932710339 3.0932710339 3.0932710339 3.0932710339 3.0932710339 3.0932710339 3.0932710339 3.0932710339 3.0932710339 
3.0932710339 3.0932710339 3.0932710339 3.0932710339 3.0932710339 3.0932710339 3.0932710339 3.0932710339 3.0932710339 
3.0932710339 3.0932710339 3.0932710339 3.0932710339 3.0932710339 3.0932710339 3.0932710339 3.0932710339 3.0932710339 
3.0932710339 3.0932710339 3.0932710339 3.0932710339 3.0932710339 3.0932710339 3.0932710339 3.0932710339 3.0932710339 
3.0932710339 3.0932710339 3.0932710339 3.0932710339 3.0932710339 3.0932710339 3.0932710339 3.0932710339 3.0932710339 
3.0932710339 3.0932710339 3.0932710339 3.0932710339 3.0932710339 3.0932710339 3.0932710339 3.0932710339 3.0932710339 
3.0932710339 3.0932710339 3.0932710339 3.0932710339 3.0932710339 3.0932710339 3.0932710339 3.0932710339 3.0932710339 
3.0932710339 3.0932710339 3.0932710339 3.0932710339 3.0932710339 3.0932710339 3.0932710339 3.0932710339 3.0932710339 
3.0932710339 3.0932710339 3.0932710339 3.0932710339 3.0932710339 3.0932710339 3.0932710339 3.0932710339 3.0932710339 
3.0932710339 3.0932710339 3.0932710339 3.0932710339 3.0932710339 3.0932710339 3.0932710339 3.0932710339 3.0932710339 
3.0932710339 3.0932710339 3.0932710339 3.0932710339 3.0932710339 3.0932710339 3.0932710339 3.0932710339 3.0932710339 
3.0932710339 3.0932710339 3.0932710339 3.0932710339 3.0932710339 3.0932710339 3.0932710339 3.0932710339 3.0932710339 
3.0932710339 3.0932710339 3.0932710339 3.0932710339 3.0932710339 3.0932710339 3.0932710339 3.0932710339 3.0932710339 
3.0932710339 3.0932710339 3.0932710339 3.0932710339 3.0932710339 3.0932710339 3.0932710339 3.0932710339 3.0932710339 
3.0932710339 3.0932710339 3.0932710339 3.0932710339 3.0932710339 3.0932710339 3.0932710339 3.0932710339 3.0932710339 
3.0932710339 3.0932710339 3.0932710339 3.0932710339 3.0932710339 3.0932710339 3.0932710339 3.0932710339 3.0932710339 
3.0932710339 3.0932710339 3.0932710339 3.0932710339 3.0932710339 3.0932710339 3.0932710339 3.0932710339 3.0932710339 
3.0932710339 3.0932710339 3.0932710339 3.0932710339 3.0932710339 3.0932710339 3.0932710339 3.0932710339 3.0932710339 
3.0932710339 3.0932710339 3.0932710339 3.0932710339 3.0932710339 3.0932710339 3.0932710339 3.0932710339 3.0932710339 
3.0932710339 3.0932710339 3.0932710339 3.0932710339 3.0932710339 3.0932710339 3.0932710339 3.0932710339 3.0932710339 
3.0932710339 3.0932710339 3.0932710339 3.0932710339 3.0932710339 3.0932710339 3.0932710339 3.0932710339 3.0932710339 
3.0932710339 3.0932710339 3.0932710339 3.0932710339 3.0932710339 3.0932710339 3.0932710339 3.0932710339 3.0932710339 
3.0932710339 3.0932710339 3.0932710339 3.0932710339 3.0932710339 3.0932710339 3.0932710339 3.0932710339 3.0932710339 
3.0932710339 3.0932710339 3.0932710339 3.0932710339 3.0932710339 3.0932710339 3.0932710339 3.0932710339 3.0932710339 
3.0932710339 3.0932710339 3.0932710339 3.0932710339 3.0932710339 3.0932710339 3.0932710339 3.0932710339 3.0932710339 
3.0932710339 3.0932710339 3.0932710339 3.0932710339 3.0932710339 3.0932710339 3.0932710339 3.0932710339 3.1078652246 
3.1078652246 3.1078652246 3.0932710339 3.0932710339 3.1078652246 3.1078652246 3.1078652246 3.1078652246 3.1078652246 
3.0932710339 3.0932710339 3.1078652246 3.1078652246 3.1078652246 3.1078652246 3.1078652246 3.1078652246 3.1078652246 
3.0932710339 3.0932710339 3.0932710339 3.1078652246 3.1078652246 3.0932710339 3.0932710339 3.1078652246 3.1078652246 
3.1078652246 3.0932710339 3.0932710339 3.1078652246 3.1078652246 3.1078652246 3.0932710339 3.0932710339 3.0932710339 
3.1078652246 3.1078652246 3.0932710339 3.0932710339 3.1078652246 3.1078652246 3.1078652246 3.1078652246 3.0932710339 
3.0932710339 3.1078652246 3.1078652246 3.0932710339 3.0932710339 3.1078652246 3.1078652246 3.1078652246 3.0932710339 
3.0932710339 3.1078652246 3.1078652246 3.0932710339 3.0932710339 3.1078652246 3.1078652246 3.1078652246 3.0932710339 
3.0932710339 3.1078652246 3.1078652246 3.0932710339 3.0932710339 3.1078652246 3.1078652246 3.1078652246 3.0932710339 
3.0932710339 3.1078652246 3.1078652246 3.1078652246 3.0932710339 3.0932710339 3.1078652246 3.1078652246 3.0932710339 
3.0932710339 3.0932710339 3.1078652246 3.1078652246 3.1078652246 3.1078652246 3.0932710339 3.0932710339 3.1078652246 
3.1078652246 3.0932710339 3.0932710339 3.1078652246 3.1078652246 3.0932710339 3.0932710339 3.1078652246 3.1078652246 
3.1078652246 3.0932710339 3.0932710339 3.1078652246 3.1078652246 3.1078652246 3.0932710339 3.0932710339 3.1078652246 
3.1078652246 3.0932710339 3.0932710339 3.1078652246 3.1078652246 3.0932710339 3.0932710339 3.0932710339 3.1078652246 
3.1078652246 3.0932710339 3.0932710339 3.1078652246 3.1078652246 3.0932710339 3.0932710339 3.1078652246 3.1078652246 
3.0932710339 3.0932710339 3.1078652246 3.1078652246 3.1078652246 3.0932710339 3.0932710339 3.1078652246 3.1224594153 
3.1224594153 3.1224594153 3.1078652246 3.0932710339 3.0932710339 3.1078652246 3.1078652246 3.1224594153 3.1224594153 
3.1224594153 3.1224594153 3.1078652246 3.0932710339 3.0932710339 3.1078652246 3.1224594153 3.1224594153 3.1224594153 
3.1224594153 3.1224594153 3.1078652246 3.0932710339 3.0932710339 3.1078652246 3.1224594153 3.1224594153 3.1224594153 
3.1078652246 3.1078652246 3.0932710339 3.0932710339 3.1078652246 3.1224594153 3.1224594153 3.1224594153 3.1078652246 
3.0932710339 3.0932710339 3.1078652246 3.1224594153 3.1224594153 3.1224594153 3.1078652246 3.0932710339 3.0932710339 
3.1078652246 3.1078652246 3.1224594153 3.1224594153 3.1224594153 3.1078652246 3.0932710339 3.0932710339 3.1078652246 
3.1224594153 3.1224594153 3.1224594153 3.1078652246 3.0932710339 3.0932710339 3.0786768432 3.0786768432 3.0786768432 
3.0932710339 3.1078652246 3.1224594153 3.1224594153 3.1224594153 3.1078652246 3.1078652246 3.0932710339 3.0786768432 
3.0786768432 3.0786768432 3.0786768432 3.0932710339 3.1078652246 3.1224594153 3.1224594153 3.1078652246 3.0932710339 
3.0786768432 3.0786768432 3.0786768432 3.0786768432 3.0786768432 3.0786768432 3.0786768432 3.0786768432 3.0786768432 
3.0786768432 3.0786768432 3.0932710339 3.1078652246 3.1224594153 3.1224594153 3.1224594153 3.1078652246 3.0932710339 
3.0786768432 3.0786768432 3.0786768432 3.0786768432 3.0786768432 3.0786768432 3.0786768432 3.0786768432 3.0786768432 
3.0932710339 3.0932710339 3.1078652246 3.1224594153 3.1224594153 3.1224594153 3.1078652246 3.0932710339 3.0786768432 
3.0786768432 3.0786768432 3.0786768432 3.0786768432 3.0932710339 3.1078652246 3.1224594153 3.1224594153 3.1078652246 
3.0932710339 3.0786768432 3.0786768432 3.0786768432 3.0786768432 3.0786768432 3.0786768432 3.0786768432 3.0932710339 
3.1078652246 3.1224594153 3.1224594153 3.1224594153 3.1078652246 3.1078652246 3.0932710339 3.0786768432 3.0786768432 
3.0786768432 3.0786768432 3.0786768432 3.0932710339 3.1078652246 3.1224594153 3.1224594153 3.1224594153 3.1078652246 
3.0932710339 3.0786768432 3.0786768432 3.0786768432 3.0786768432 3.0786768432 3.0786768432 3.0932710339 3.1078652246 
3.1078652246 3.1224594153 3.137053606 3.137053606 3.137053606 3.1224594153 3.1078652246 3.0932710339 3.0786768432 
3.0786768432 3.0786768432 3.0786768432 3.0786768432 3.0932710339 3.1078652246 3.1224594153 3.137053606 3.137053606 
3.137053606 3.137053606 3.1224594153 3.1078652246 3.0932710339 3.0786768432 3.0786768432 3.0786768432 3.0786768432 
3.0786768432 3.0786768432 3.0932710339 3.1078652246 3.1224594153 3.137053606 3.137053606 3.137053606 3.137053606 
3.1224594153 3.1224594153 3.1078652246 3.0932710339 3.0786768432 3.0786768432 3.0786768432 3.0786768432 3.0786768432 
3.0786768432 3.0786768432 3.0932710339 3.1078652246 3.1224594153 3.1224594153 3.137053606 3.137053606 3.137053606 
3.1224594153 3.1078652246 3.0932710339 3.0786768432 3.0786768432 3.0786768432 3.0786768432 3.0786768432 3.0932710339 
3.1078652246 3.1224594153 3.137053606 3.137053606 3.137053606 3.1224594153 3.1078652246 3.1078652246 3.0932710339 
3.0786768432 3.0786768432 3.0786768432 3.0786768432 3.0786768432 3.0932710339 3.1078652246 3.1224594153 3.137053606 
3.137053606 3.137053606 3.137053606 3.1224594153 3.1078652246 3.0932710339 3.0786768432 3.0786768432 3.0786768432 
3.0786768432 3.0786768432 3.0932710339 3.1078652246 3.1224594153 3.137053606 3.137053606 3.1224594153 3.1224594153 
3.1078652246 3.0932710339 3.0786768432 3.0786768432 3.0786768432 3.0786768432 3.0786768432 3.0786768432 3.0932710339 
3.1078652246 3.1224594153 3.137053606 3.137053606 3.1224594153 3.1078652246 3.0932710339 3.0786768432 3.0786768432 
3.0786768432 3.0786768432 3.0786768432 3.0932710339 3.1078652246 3.1224594153 3.1224594153 3.137053606 3.137053606 
3.137053606 3.137053606 3.1224594153 3.1078652246 3.0932710339 3.0786768432 3.0786768432 3.0786768432 3.0786768432 
3.0786768432 3.0932710339 3.1078652246 3.1224594153 3.137053606 3.137053606 3.1224594153 3.1078652246 3.0932710339 
3.0786768432 3.0786768432 3.0786768432 3.0786768432 3.0786768432 3.0932710339 3.1078652246 3.1224594153 3.137053606 
3.137053606 3.1224594153 3.1078652246 3.0932710339 3.0786768432 3.0786768432 3.0786768432 3.0786768432 3.0786768432 
3.0932710339 3.1078652246 3.1224594153 3.137053606 3.137053606 3.1516477967 3.1516477967 3.1516477967 3.137053606 
3.1224594153 3.1224594153 3.1078652246 3.0932710339 3.0786768432 3.0786768432 3.0786768432 3.0786768432 3.0786768432 
3.0932710339 3.1078652246 3.1078652246 3.1224594153 3.137053606 3.1516477967 3.1516477967 3.1516477967 3.137053606 
3.137053606 3.1224594153 3.1078652246 3.1078652246 3.0932710339 3.0786768432 3.0786768432 3.0786768432 3.0786768432 
3.0932710339 3.1078652246 3.1224594153 3.1224594153 3.137053606 3.1516477967 3.1516477967 3.1516477967 3.1516477967 
3.1516477967 3.137053606 3.1224594153 3.1078652246 3.0932710339 3.0786768432 3.0786768432 3.0786768432 3.0786768432 
3.0932710339 3.0932710339 3.1078652246 3.1224594153 3.137053606 3.137053606 3.1516477967 3.1516477967 3.1516477967 
3.137053606 3.1224594153 3.1078652246 3.0932710339 3.0786768432 3.0786768432 3.0786768432 3.0786768432 3.0786768432 
3.0932710339 3.1078652246 3.1224594153 3.137053606 3.1516477967 3.1516477967 3.1516477967 3.137053606 3.1224594153 
3.1078652246 3.0932710339 3.0786768432 3.0786768432 3.0786768432 3.0786768432 3.0786768432 3.0640826525 3.0640826525 
3.0640826525 3.0640826525 3.0640826525 3.0640826525 3.0786768432 3.0932710339 3.1078652246 3.1224594153 3.137053606 
3.1516477967 3.1516477967 3.1516477967 3.1516477967 3.137053606 3.1224594153 3.1078652246 3.0932710339 3.0786768432 
3.0786768432 3.0786768432 3.0640826525 3.0640826525 3.0640826525 3.0640826525 3.0640826525 3.0786768432 3.0932710339 
3.1078652246 3.1224594153 3.137053606 3.137053606 3.1516477967 3.1516477967 3.137053606 3.137053606 3.1224594153 
3.1078652246 3.0932710339 3.0786768432 3.0786768432 3.0786768432 3.0786768432 3.0640826525 3.0640826525 3.0640826525 
3.0786768432 3.0932710339 3.1078652246 3.1224594153 3.1224594153 3.137053606 3.1516477967 3.1516477967 3.137053606 
3.1224594153 3.1078652246 3.0932710339 3.0786768432 3.0786768432 3.0786768432 3.0640826525 3.0640826525 3.0640826525 
3.0786768432 3.0932710339 3.1078652246 3.1224594153 3.137053606 3.1516477967 3.1516477967 3.1516477967 3.137053606 
3.1224594153 3.1078652246 3.0932710339 3.0786768432 3.0786768432 3.0786768432 3.0640826525 3.0640826525 3.0640826525 
3.0786768432 3.0932710339 3.0932710339 3.1078652246 3.1224594153 3.137053606 3.1516477967 3.1516477967 3.137053606 
3.1224594153 3.1078652246 3.0932710339 3.0786768432 3.0786768432 3.0786768432 3.0786768432 3.0786768432 3.0640826525 
3.0640826525 3.0786768432 3.0932710339 3.1078652246 3.1224594153 3.137053606 3.137053606 3.1516477967 3.1516477967 
3.1516477967 3.137053606 3.1224594153 3.1078652246 3.0932710339 3.0786768432 3.0786768432 3.0786768432 3.0640826525 
3.0640826525 3.0786768432 3.0932710339 3.0932710339 3.1078652246 3.1224594153 3.137053606 3.1516477967 3.1662419875 
3.1662419875 3.1662419875 3.1662419875 3.1662419875 3.1516477967 3.137053606 3.1224594153 3.1078652246 3.1078652246 
3.0932710339 3.0786768432 3.0786768432 3.0786768432 3.0786768432 3.0786768432 3.0640826525 3.0494884618 3.0494884618 
3.0494884618 3.0494884618 3.0494884618 3.0640826525 3.0786768432 3.0786768432 3.0932710339 3.1078652246 3.1078652246 
3.1224594153 3.1224594153 3.137053606 3.1516477967 3.1516477967 3.1662419875 3.1662419875 3.1662419875 3.1516477967 
3.137053606 3.1224594153 3.1078652246 3.0932710339 3.0786768432 3.0786768432 3.0786768432 3.0786768432 3.0786768432 
3.0786768432 3.0786768432 3.0786768432 3.0640826525 3.0640826525 3.0494884618 3.0494884618 3.0494884618 3.0640826525 
3.0640826525 3.0786768432 3.0932710339 3.0932710339 3.1078652246 3.1224594153 3.137053606 3.1516477967 3.1662419875 
3.1662419875 3.1662419875 3.1662419875 3.1516477967 3.137053606 3.1224594153 3.1078652246 3.0932710339 3.0932710339 
3.0786768432 3.0640826525 3.0640826525 3.0640826525 3.0786768432 3.0786768432 3.0786768432 3.0640826525 3.0494884618 
3.0494884618 3.0494884618 3.0640826525 3.0786768432 3.0932710339 3.1078652246 3.1224594153 3.137053606 3.137053606 
3.1516477967 3.1662419875 3.1662419875 3.1516477967 3.137053606 3.1224594153 3.1078652246 3.0932710339 3.0786768432 
3.0786768432 3.0640826525 3.0640826525 3.0640826525 3.0640826525 3.0786768432 3.0786768432 3.0640826525 3.0494884618 
3.0494884618 3.0494884618 3.0640826525 3.0786768432 3.0932710339 3.1078652246 3.1224594153 3.137053606 3.1516477967 
3.1516477967 3.1662419875 3.1662419875 3.1662419875 3.1516477967 3.137053606 3.137053606 3.1224594153 3.1078652246 
3.0932710339 3.0786768432 3.0640826525 3.0640826525 3.0640826525 3.0640826525 3.0786768432 3.0786768432 3.0786768432 
3.0640826525 3.0494884618 3.0348942711 3.0348942711 3.0348942711 3.0348942711 3.0494884618 3.0640826525 3.0786768432 
3.0932710339 3.1078652246 3.1224594153 3.137053606 3.1516477967 3.1662419875 2.9619233175 2.9619233175 2.9765175082 
2.9765175082 2.991111699 2.991111699 3.0057058897 3.0057058897 3.0203000804 3.0203000804 3.0348942711 3.0348942711 
3.0494884618 3.0494884618 3.0640826525 3.0640826525 3.0786768432 3.0786768432 3.0932710339 3.0932710339 3.1078652246 
3.1078652246 3.1224594153 3.1224594153 3.137053606 3.137053606 3.1516477967 3.1516477967 3.1662419875 3.1662419875 
2.9619233175 2.9765175082 2.991111699 3.0057058897 3.0203000804 3.0348942711 3.0494884618 3.0640826525 3.0786768432 
3.0932710339 3.1078652246 3.1224594153 3.137053606 3.1516477967 3.1662419875 2.9619233175 2.9765175082 2.991111699 
3.0057058897 3.0203000804 3.0348942711 3.0494884618 3.0640826525 3.0786768432 3.0932710339 3.1078652246 3.1224594153 
3.137053606 3.1516477967 3.1662419875 2.9619233175 2.9765175082 2.991111699 3.0057058897 3.0203000804 3.0348942711 
3.0494884618 3.0640826525 3.0786768432 3.0932710339 3.1078652246 3.1224594153 3.137053606 3.1516477967 3.1662419875 
2.9619233175 2.9765175082 2.991111699 3.0057058897 3.0203000804 3.0348942711 3.0494884618 3.0640826525 3.0786768432 
3.0932710339 3.1078652246 3.1224594153 3.137053606 3.1516477967 3.1662419875 2.9619233175 2.9765175082 2.991111699 
3.0057058897 3.0203000804 3.0348942711 3.0494884618 3.0640826525 3.0786768432 3.0932710339 3.1078652246 3.1224594153 
3.137053606 3.1516477967 3.1662419875 2.9619233175 2.9765175082 2.991111699 3.0057058897 3.0203000804 3.0348942711 
3.0494884618 3.0640826525 3.0786768432 3.0932710339 3.1078652246 3.1224594153 3.137053606 3.1516477967 2.9619233175 
2.9765175082 2.991111699 3.0057058897 3.0203000804 3.0348942711 3.0494884618 3.0640826525 3.0786768432 3.0932710339 
3.1078652246 3.1224594153 3.137053606 3.1516477967 2.9619233175 2.9765175082 2.991111699 3.0057058897 3.0203000804 
3.0348942711 3.0494884618 3.0640826525 3.0786768432 3.0932710339 3.1078652246 3.1224594153 3.137053606 3.1516477967 
3.1516477967 3.137053606 3.1224594153 3.1078652246 3.0932710339 3.0786768432 3.0640826525 3.0640826525 3.0640826525 
3.0786768432 3.0786768432 3.0640826525 3.0494884618 3.0348942711 3.0348942711 3.0348942711 3.0494884618 3.0494884618 
3.0640826525 3.0786768432 3.0932710339 3.1078652246 3.1224594153 3.1224594153 2.9619233175 2.9619233175 2.9765175082 
2.9765175082 2.991111699 2.991111699 3.0057058897 3.0057058897 3.0203000804 3.0203000804 3.0348942711 3.0348942711 
3.0494884618 3.0494884618 3.0640826525 3.0640826525 3.0786768432 3.0786768432 3.0932710339 3.0932710339 3.1078652246 
3.1078652246 3.1224594153 3.1224594153 3.137053606 2.9619233175 2.9765175082 2.991111699 3.0057058897 3.0203000804 
3.0348942711 3.0494884618 3.0640826525 3.0786768432 3.0932710339 3.1078652246 3.1224594153 3.137053606 3.1516477967 
2.9619233175 2.9765175082 2.991111699 3.0057058897 3.0203000804 3.0348942711 3.0494884618 3.0640826525 3.0786768432 
3.0932710339 3.1078652246 3.1224594153 3.137053606 3.1516477967 2.9619233175 2.9765175082 2.991111699 3.0057058897 
3.0203000804 3.0348942711 3.0494884618 3.0640826525 3.0786768432 3.0932710339 3.1078652246 3.1224594153 3.137053606 
3.1516477967 2.9619233175 2.9765175082 2.991111699 3.0057058897 3.0203000804 3.0348942711 3.0494884618 3.0640826525 
3.0786768432 3.0932710339 3.1078652246 3.1224594153 3.137053606 3.1516477967 3.1662419875 2.9619233175 2.9765175082 
2.991111699 3.0057058897 3.0203000804 3.0348942711 3.0494884618 3.0640826525 3.0786768432 3.0932710339 3.1078652246 
3.1224594153 3.137053606 3.1516477967 2.9619233175 2.9765175082 2.991111699 3.0057058897 3.0203000804 3.0348942711 
3.0494884618 3.0640826525 3.0786768432 3.0932710339 3.1078652246 3.1224594153 3.137053606 2.9619233175 2.9765175082 
2.991111699 3.0057058897 3.0203000804 3.0348942711 3.0494884618 3.0640826525 3.0786768432 3.0932710339 3.1078652246 
3.1224594153 3.137053606 2.9619233175 2.9765175082 2.991111699 3.0057058897 3.0203000804 3.0348942711 3.0494884618 
3.0640826525 3.0786768432 3.0932710339 3.1078652246 3.1224594153 3.137053606 2.9619233175 2.9765175082 2.991111699 
3.0057058897 3.0203000804 3.0348942711 3.0494884618 3.0640826525 3.0786768432 3.0932710339 3.1078652246 3.1224594153 
2.9619233175 2.9765175082 2.991111699 3.0057058897 3.0203000804 3.0348942711 3.0494884618 3.0640826525 3.0786768432 