# vtk DataFile Version 4.2
vtk output
ASCII
DATASET POLYDATA
POINTS 7069 float
1566.58 -3247.15 0 1590.85 -3256.19 0 1609.94 -3247.15 0 
1547.6 -3230.15 0 1553.85 -3240.46 0 1627.85 -3238.66 0 
1645.84 -3230.15 0 1537.29 -3213.15 0 1664.86 -3221.14 0 
1681.73 -3213.14 0 1526.99 -3196.15 0 1701.86 -3203.61 0 
1717.63 -3196.14 0 1516.68 -3179.15 0 1516.85 -3179.43 0 
1738.86 -3186.08 0 1753.52 -3179.14 0 1506.38 -3162.15 0 
1775.86 -3168.56 0 1789.42 -3162.14 0 1496.07 -3145.14 0 
1812.86 -3151.03 0 1825.31 -3145.14 0 1485.76 -3128.14 0 
1849.87 -3133.51 0 1861.21 -3128.13 0 1475.46 -3111.14 0 
1479.86 -3118.4 0 1886.87 -3115.98 0 1897.1 -3111.13 0 
1465.15 -3094.14 0 1923.87 -3098.45 0 1933 -3094.13 0 
1454.85 -3077.14 0 1960.87 -3080.93 0 1968.89 -3077.13 0 
1444.54 -3060.14 0 1997.87 -3063.4 0 2004.79 -3060.13 0 
1434.23 -3043.14 0 1442.86 -3057.37 0 2034.88 -3051.61 0 
2071.88 -3046.87 0 2102.92 -3043.12 0 1423.93 -3026.14 0 
2108.88 -3042.4 0 2145.88 -3037.94 0 2182.88 -3033.47 0 
2219.88 -3029 0 2243.77 -3026.12 0 1413.62 -3009.14 0 
2256.88 -3024.53 0 2293.88 -3020.07 0 2301.66 -3009.11 0 
1403.32 -2992.14 0 1405.86 -2996.34 0 2308.24 -2992.11 0 
1393.01 -2975.14 0 2311.83 -2975.11 0 1382.7 -2958.14 0 
2315.42 -2958.11 0 1372.4 -2941.14 0 2319.01 -2941.11 0 
1362.09 -2924.14 0 1368.86 -2935.31 0 2322.6 -2924.11 0 
1333.24 -2907.14 0 2326.19 -2907.11 0 1289.33 -2890.14 0 
1294.86 -2892.28 0 1331.86 -2906.6 0 2329.78 -2890.11 0 
1245.42 -2873.14 0 1257.86 -2877.95 0 2330.89 -2884.82 0 
2333.37 -2873.11 0 1201.51 -2856.14 0 1220.86 -2863.63 0 
2336.96 -2856.1 0 1157.6 -2839.14 0 1183.86 -2849.3 0 
2340.54 -2839.1 0 1113.69 -2822.14 0 1146.86 -2834.98 0 
2344.13 -2822.1 0 1069.77 -2805.14 0 1072.86 -2806.33 0 
1109.86 -2820.66 0 2347.72 -2805.1 0 1030.58 -2788.14 0 
1035.86 -2791.6 0 2351.31 -2788.1 0 1008.48 -2771.14 0 
2354.9 -2771.1 0 986.383 -2754.14 0 998.864 -2763.74 0 
2358.49 -2754.1 0 964.283 -2737.14 0 2362.08 -2737.1 0 
954.576 -2720.13 0 961.865 -2735.27 0 2365.67 -2720.1 0 
946.589 -2703.13 0 2367.9 -2709.51 0 2369.26 -2703.09 0 
938.804 -2686.13 0 2372.85 -2686.09 0 931.212 -2669.13 0 
2376.44 -2669.09 0 923.949 -2652.13 0 924.869 -2654.59 0 
2380.03 -2652.09 0 917.598 -2635.13 0 2383.62 -2635.09 0 
911.247 -2618.13 0 2387.21 -2618.09 0 904.896 -2601.13 0 
2390.79 -2601.09 0 898.544 -2584.13 0 2394.38 -2584.09 0 
892.193 -2567.13 0 2397.97 -2567.09 0 885.842 -2550.13 0 
887.874 -2555.56 0 2401.56 -2550.08 0 879.491 -2533.13 0 
2404.92 -2534.2 0 2405.15 -2533.08 0 873.14 -2516.12 0 
2408.74 -2516.08 0 866.789 -2499.12 0 2412.33 -2499.08 0 
860.438 -2482.12 0 2415.92 -2482.08 0 854.086 -2465.12 0 
2419.51 -2465.08 0 847.735 -2448.12 0 850.879 -2456.54 0 
2423.1 -2448.08 0 841.384 -2431.12 0 2426.69 -2431.08 0 
835.033 -2414.12 0 2430.28 -2414.08 0 828.682 -2397.12 0 
2433.87 -2397.08 0 822.331 -2380.12 0 2437.45 -2380.07 0 
815.979 -2363.12 0 2441.04 -2363.07 0 809.628 -2346.12 0 
813.883 -2357.51 0 2441.93 -2358.89 0 2444.63 -2346.07 0 
803.277 -2329.12 0 2448.22 -2329.07 0 796.926 -2312.11 0 
2451.81 -2312.07 0 790.575 -2295.11 0 2455.4 -2295.07 0 
784.224 -2278.11 0 2458.99 -2278.07 0 777.873 -2261.11 0 
2462.58 -2261.07 0 771.521 -2244.11 0 776.888 -2258.48 0 
2466.17 -2244.07 0 765.17 -2227.11 0 2469.76 -2227.06 0 
758.819 -2210.11 0 2478.02 -2210.06 0 752.468 -2193.11 0 
2478.94 -2208.83 0 2490.67 -2193.06 0 746.117 -2176.11 0 
2503.33 -2176.06 0 739.778 -2159.11 0 739.893 -2159.45 0 
2515.94 -2159.11 0 2515.98 -2159.06 0 737.528 -2142.11 0 
2528.64 -2142.06 0 735.323 -2125.1 0 2541.29 -2125.06 0 
733.119 -2108.1 0 2544 -2108.06 0 730.914 -2091.1 0 
2544.91 -2091.05 0 728.71 -2074.1 0 2545.19 -2074.05 0 
726.505 -2057.1 0 2544.25 -2057.05 0 724.3 -2040.1 0 
2543.31 -2040.05 0 722.096 -2023.1 0 2542.36 -2023.05 0 
719.891 -2006.1 0 2541.42 -2006.05 0 717.687 -1989.1 0 
2540.48 -1989.05 0 715.482 -1972.1 0 2539.53 -1972.05 0 
713.278 -1955.1 0 2538.59 -1955.05 0 711.073 -1938.09 0 
2537.65 -1938.05 0 708.869 -1921.09 0 2536.7 -1921.04 0 
706.664 -1904.09 0 2535.76 -1904.04 0 704.46 -1887.09 0 
2534.82 -1887.04 0 702.255 -1870.09 0 702.909 -1875.13 0 
2533.88 -1870.04 0 700.05 -1853.09 0 2532.93 -1853.04 0 
697.846 -1836.09 0 2531.99 -1836.04 0 695.641 -1819.09 0 
2531.05 -1819.04 0 693.437 -1802.09 0 2530.1 -1802.04 0 
691.232 -1785.09 0 2529.16 -1785.04 0 689.019 -1768.09 0 
2528.22 -1768.04 0 687.289 -1751.08 0 2527.27 -1751.03 0 
685.659 -1734.08 0 2526.33 -1734.03 0 684.12 -1717.08 0 
2525.39 -1717.03 0 680.752 -1700.08 0 2524.44 -1700.03 0 
677.587 -1683.08 0 2523.5 -1683.03 0 674.913 -1666.08 0 
2522.56 -1666.03 0 672.953 -1649.08 0 2521.61 -1649.03 0 
670.655 -1632.08 0 2520.67 -1632.03 0 667.044 -1615.08 0 
2519.73 -1615.03 0 -481.108 -1610.23 0 -504.862 -1598.11 0 
-444.107 -1612.17 0 -407.105 -1601.11 0 -397.045 -1598.1 0 
662.63 -1598.08 0 665.923 -1609.8 0 2518.78 -1598.03 0 
-518.108 -1591.35 0 -538.17 -1581.11 0 -370.104 -1590.05 0 
-340.147 -1581.1 0 658.612 -1581.08 0 2517.84 -1581.03 0 
-555.107 -1572.46 0 -571.478 -1564.11 0 -333.102 -1579 0 
-296.1 -1567.94 0 -283.248 -1564.1 0 655.281 -1564.07 0 
2518.28 -1564.02 0 -592.107 -1553.58 0 -604.787 -1547.11 0 
-259.099 -1556.88 0 -226.35 -1547.1 0 652.475 -1547.07 0 
2519.44 -1547.02 0 -629.107 -1534.69 0 -638.095 -1530.11 0 
-222.097 -1545.83 0 -185.095 -1534.77 0 -169.452 -1530.09 0 
648.985 -1530.07 0 2520.62 -1530.02 0 -666.107 -1515.81 0 
-671.404 -1513.11 0 -148.094 -1523.71 0 -112.554 -1513.09 0 
645.373 -1513.07 0 1321.35 -1513.05 0 1331.95 -1517.76 0 
1368.95 -1518.68 0 1405.95 -1519.06 0 1442.95 -1519.44 0 
1479.95 -1519.81 0 1516.95 -1520.19 0 1553.95 -1520.57 0 
1590.95 -1514.64 0 1592.78 -1513.05 0 2521.8 -1513.02 0 
-703.107 -1496.93 0 -704.712 -1496.11 0 -111.092 -1512.66 0 
-74.0903 -1501.17 0 -68.891 -1496.09 0 641.761 -1496.07 0 
1287.42 -1496.05 0 1294.95 -1499.82 0 1612.24 -1496.04 0 
2522.98 -1496.02 0 -738.021 -1479.11 0 -52.4388 -1479.09 0 
638.15 -1479.07 0 1255.64 -1479.05 0 1257.95 -1481.29 0 
1627.96 -1482.32 0 1631.71 -1479.04 0 2524.15 -1479.02 0 
-740.107 -1477.58 0 -752.288 -1462.11 0 -37.0873 -1467.68 0 
-33.3806 -1462.09 0 634.538 -1462.07 0 1235.94 -1462.05 0 
1651.17 -1462.04 0 2525.33 -1462.02 0 -764.02 -1445.11 0 
-21.2168 -1445.09 0 630.926 -1445.07 0 1215.32 -1445.05 0 
1220.95 -1451.17 0 1664.96 -1450 0 1670.88 -1445.04 0 
2526.51 -1445.02 0 -775.751 -1428.1 0 -8.79624 -1428.08 0 
627.315 -1428.07 0 628.933 -1435.68 0 1199.65 -1428.05 0 
1690.9 -1428.04 0 2527.68 -1428.02 0 -777.105 -1426.14 0 
-787.483 -1411.1 0 -0.0832985 -1416.16 0 3.62422 -1411.08 0 
623.703 -1411.07 0 1183.99 -1411.05 0 1701.96 -1418.49 0 
1711.5 -1411.04 0 2528.86 -1411.01 0 -799.215 -1394.1 0 
16.0447 -1394.08 0 620.091 -1394.07 0 1168.33 -1394.05 0 
1183.95 -1411 0 1733.28 -1394.04 0 2530.04 -1394.01 0 
-810.946 -1377.1 0 28.4652 -1377.08 0 616.479 -1377.06 0 
1152.67 -1377.05 0 1738.97 -1389.59 0 1755.05 -1377.03 0 
2531.21 -1377.01 0 -814.103 -1372.53 0 -822.678 -1360.1 0 
36.9207 -1365.51 0 40.8857 -1360.08 0 612.868 -1360.06 0 
1136.59 -1360.05 0 1146.95 -1370.84 0 1771.47 -1360.03 0 
2530.23 -1360.01 0 -834.41 -1343.1 0 53.3062 -1343.08 0 
609.256 -1343.06 0 1117.7 -1343.05 0 1775.97 -1353.46 0 
1780.2 -1343.03 0 2529.37 -1343.01 0 -846.142 -1326.1 0 
65.7266 -1326.08 0 605.644 -1326.06 0 1094.75 -1326.05 0 
1109.95 -1336.9 0 1787.11 -1326.03 0 2527.99 -1326.01 0 
-851.101 -1318.91 0 -857.873 -1309.1 0 73.9247 -1314.85 0 
78.1472 -1309.07 0 600.306 -1309.06 0 1070.95 -1309.05 0 
1072.95 -1310.48 0 1794.01 -1309.03 0 2524.63 -1309.01 0 
-869.605 -1292.1 0 90.5677 -1292.07 0 591.056 -1292.06 0 
591.94 -1293.68 0 1047.15 -1292.05 0 1800.92 -1292.03 0 
2521.27 -1292.01 0 -881.337 -1275.1 0 102.988 -1275.07 0 
582.777 -1275.06 0 1023.34 -1275.05 0 1035.95 -1284.05 0 
1807.82 -1275.03 0 2517.91 -1275.01 0 -888.098 -1265.3 0 
-893.069 -1258.1 0 110.929 -1264.2 0 115.409 -1258.07 0 
576.052 -1258.06 0 999.541 -1258.05 0 1812.97 -1263.15 0 
1815.17 -1258.03 0 2515.99 -1265.3 0 2514.55 -1258.01 0 
-904.8 -1241.1 0 127.829 -1241.07 0 570.603 -1241.06 0 
985.126 -1241.05 0 998.953 -1257.63 0 1826.59 -1241.02 0 
2511.19 -1241.01 0 -916.532 -1224.1 0 140.25 -1224.07 0 
566.801 -1224.06 0 970.879 -1224.05 0 1838.03 -1224.02 0 
2507.83 -1224 0 -925.096 -1211.69 0 -928.264 -1207.1 0 
147.602 -1207.07 0 563 -1207.06 0 957.661 -1207.05 0 
961.955 -1213.44 0 1849.46 -1207.02 0 2504.47 -1207 0 
-939.996 -1190.1 0 147.933 -1205.23 0 149.707 -1190.07 0 
559.199 -1190.05 0 946.243 -1190.04 0 1849.98 -1206.25 0 
1860.89 -1190.02 0 2501.11 -1190 0 -951.727 -1173.09 0 
151.697 -1173.06 0 555.397 -1173.05 0 934.826 -1173.04 0 
1872.32 -1173.02 0 2497.85 -1173 0 -962.094 -1158.07 0 
-963.459 -1156.09 0 153.686 -1156.06 0 551.55 -1156.05 0 
554.946 -1171.04 0 923.649 -1156.04 0 924.957 -1158.24 0 
1883.75 -1156.02 0 2496.09 -1156 0 -975.191 -1139.09 0 
155.675 -1139.06 0 547.702 -1139.05 0 914.942 -1139.04 0 
1886.98 -1151.22 0 1894.38 -1139.02 0 2495.27 -1139 0 
-988.553 -1122.09 0 157.665 -1122.06 0 543.86 -1122.05 0 
906.235 -1122.04 0 1903.45 -1122.01 0 2494.91 -1122 0 
-999.092 -1112.64 0 -1007.55 -1105.09 0 159.654 -1105.06 0 
540.025 -1105.05 0 897.528 -1105.04 0 1911.32 -1105.01 0 
2494.54 -1105 0 -1020.32 -1088.09 0 161.644 -1088.06 0 
536.197 -1088.05 0 888.821 -1088.04 0 1918.01 -1088.01 0 
2494.18 -1088 0 -1026.47 -1071.09 0 163.706 -1071.06 0 
532.375 -1071.05 0 880.114 -1071.04 0 887.96 -1086.36 0 
1923.99 -1072.02 0 1924.36 -1071.01 0 2493.82 -1071 0 
-1029.36 -1054.09 0 170.57 -1054.06 0 528.559 -1054.05 0 
870.211 -1054.04 0 1930.72 -1054.01 0 2493.45 -1053.99 0 
-1031.61 -1037.09 0 177.485 -1037.06 0 524.75 -1037.05 0 
856.6 -1037.04 0 1937.08 -1037.01 0 2493.09 -1036.99 0 
-1033.87 -1020.09 0 184.401 -1020.05 0 520.947 -1020.05 0 
842.481 -1020.04 0 850.962 -1030.25 0 1943.44 -1020.01 0 
2492.72 -1019.99 0 -1036.09 -1003.4 0 -1036.13 -1003.09 0 
184.945 -1018.72 0 191.317 -1003.05 0 517.123 -1003.04 0 
[...]
POINT_DATA 7069
SCALARS Pressure double
LOOKUP_TABLE default
3.0932710339 3.0932710339 3.0932710339 3.0932710339 3.0932710339 3.0932710339 3.0932710339 3.0932710339 3.0932710339 
3.0932710339 3.0932710339 3.0932710339 3.0932710339 3.0932710339 3.0932710339 3.0932710339 3.0932710339 3.0932710339 
3.0932710339 3.0932710339 3.0932710339 3.0932710339 3.0932710339 3.0932710339 3.0932710339 3.0932710339 3.0932710339 
3.0932710339 3.0932710339 3.0932710339 3.0932710339 3.0932710339 3.0932710339 3.0932710339 3.0932710339 3.0932710339 
3.0932710339 3.0932710339 3.0932710339 3.0932710339 3.0932710339 3.0932710339 3.0932710339 3.0932710339 3.0932710339 
3.0932710339 3.0932710339 3.0932710339 3.0932710339 3.0932710339 3.0932710339 3.0932710339 3.0932710339 3.0932710339 
3.0932710339 3.0932710339 3.0932710339 3.0932710339 3.0932710339 3.0932710339 3.0932710339 3.0932710339 3.0932710339 
3.0932710339 3.0932710339 3.0932710339 3.0932710339 3.0932710339 3.0932710339 3.0932710339 3.0932710339 3.0932710339 
3.0932710339 3.0932710339 3.0932710339 3.0932710339 3.0932710339 3.0932710339 3.0932710339 3.0932710339 3.0932710339 
3.0932710339 3.0932710339 3.0932710339 3.0932710339 3.0932710339 3.0932710339 3.0932710339 3.0932710339 3.0932710339 
3.0932710339 3.0932710339 3.0932710339 3.0932710339 3.0932710339 3.0932710339 3.0932710339 3.0932710339 3.0932710339 
3.0932710339 3.0932710339 3.0932710339 3.0932710339 3.0932710339 3.0932710339 3.0932710339 3.0932710339 3.0932710339 
3.0932710339 3.0932710339 3.0932710339 3.0932710339 3.0932710339 3.0932710339 3.0932710339 3.0932710339 3.0932710339 
3.0932710339 3.0932710339 3.0932710339 3.0932710339 3.0932710339 3.0932710339 3.0932710339 3.0932710339 3.0932710339 
3.0932710339 3.0932710339 3.0932710339 3.0932710339 3.0932710339 3.0932710339 3.0932710339 3.0932710339 3.0932710339 
3.0932710339 3.0932710339 3.0932710339 3.0932710339 3.0932710339 3.0932710339 3.0932710339 3.0932710339 3.0932710339 
3.0932710339 3.0932710339 3.0932710339 3.0932710339 3.0932710339 3.0932710339 3.0932710339 3.0932710339 3.0932710339 
3.0932710339 3.0932710339 3.0932710339 3.0932710339 3.0932710339 3.0932710339 3.0932710339 3.0932710339 3.0932710339 
3.0932710339 3.0932710339 3.0932710339 3.0932710339 3.0932710339 3.0932710339 3.0932710339 3.0932710339 3.0932710339 
3.0932710339 3.0932710339 3.0932710339 3.0932710339 3.0932710339 3.0932710339 3.0932710339 3.0932710339 3.0932710339 
3.0932710339 3.0932710339 3.0932710339 3.0932710339 3.0932710339 3.0932710339 3.0932710339 3.0932710339 3.0932710339 
3.0932710339 3.0932710339 3.0932710339 3.0932710339 3.0932710339 3.0932710339 3.0932710339 3.0932710339 3.0932710339 
3.0932710339 3.0932710339 3.0932710339 3.0932710339 3.0932710339 3.0932710339 3.0932710339 3.0932710339 3.0932710339 
3.0932710339 3.0932710339 3.0932710339 3.0932710339 3.0932710339 3.0932710339 3.0932710339 3.0932710339 3.0932710339 
3.0932710339 3.0932710339 3.0932710339 3.0932710339 3.0932710339 3.0932710339 3.0932710339 3.0932710339 3.0932710339 
3.0932710339 3.0932710339 3.0932710339 3.0932710339 3.0932710339 3.0932710339 3.0932710339 3.0932710339 3.0932710339 
3.0932710339 3.0932710339 3.0932710339 3.0932710339 3.0932710339 3.0932710339 3.0932710339 3.0932710339 3.0932710339 
3.0932710339 3.0786768432 3.0786768432 3.0786768432 3.0786768432 3.0786768432 3.0932710339 3.0932710339 3.0932710339 
3.0786768432 3.0786768432 3.0786768432 3.0786768432 3.0932710339 3.0932710339 3.0786768432 3.0786768432 3.0786768432 
3.0786768432 3.0786768432 3.0932710339 3.0932710339 3.0786768432 3.0786768432 3.0786768432 3.0786768432 3.0932710339 
3.0932710339 3.0786768432 3.0786768432 3.0786768432 3.0786768432 3.0786768432 3.0932710339 3.0932710339 3.0786768432 
3.0786768432 3.0786768432 3.0786768432 3.0932710339 3.1078652246 3.1078652246 3.1078652246 3.1078652246 3.1078652246 
3.1078652246 3.1078652246 3.1078652246 3.1078652246 3.1078652246 3.0932710339 3.0786768432 3.0786768432 3.0786768432 
3.0786768432 3.0786768432 3.0932710339 3.1078652246 3.1078652246 3.1078652246 3.0932710339 3.0786768432 3.0786768432 
3.0932710339 3.1078652246 3.1078652246 3.1078652246 3.1078652246 3.0932710339 3.0786768432 3.0786768432 3.0786768432 
3.0786768432 3.0932710339 3.1078652246 3.1078652246 3.0932710339 3.0786768432 3.0786768432 3.0932710339 3.1078652246 
3.1078652246 3.1078652246 3.1078652246 3.0932710339 3.0786768432 3.0786768432 3.0932710339 3.0932710339 3.1078652246 
3.1078652246 3.0932710339 3.0786768432 3.0786768432 3.0786768432 3.0786768432 3.0932710339 3.1078652246 3.1078652246 
3.1078652246 3.0932710339 3.0786768432 3.0786768432 3.0932710339 3.1078652246 3.1078652246 3.1078652246 3.0932710339 
3.0786768432 3.0786768432 3.0932710339 3.1078652246 3.1078652246 3.1078652246 3.0932710339 3.0786768432 3.0786768432 
3.0786768432 3.0786768432 3.0932710339 3.1078652246 3.1078652246 3.1078652246 3.0932710339 3.0786768432 3.0786768432 
3.0932710339 3.1078652246 3.1078652246 3.1078652246 3.0932710339 3.0786768432 3.0786768432 3.0932710339 3.1078652246 
3.1078652246 3.1078652246 3.0932710339 3.0786768432 3.0786768432 3.0786768432 3.0786768432 3.0932710339 3.1078652246 
3.1078652246 3.1078652246 3.0932710339 3.0786768432 3.0786768432 3.0932710339 3.0932710339 3.1078652246 3.1078652246 
3.0932710339 3.0786768432 3.0786768432 3.0932710339 3.1078652246 3.1078652246 3.1078652246 3.0932710339 3.0786768432 
3.0786768432 3.0786768432 3.0786768432 3.0932710339 3.1078652246 3.1078652246 3.1078652246 3.0932710339 3.0932710339 
3.0786768432 3.0786768432 3.0932710339 3.1078652246 3.1078652246 3.1078652246 3.0932710339 3.0786768432 3.0786768432 
3.0932710339 3.1078652246 3.1078652246 3.0932710339 3.0786768432 3.0786768432 3.0786768432 3.0932710339 3.1078652246 
3.1078652246 3.1078652246 3.0932710339 3.0786768432 3.0786768432 3.0786768432 3.0932710339 3.1078652246 3.1078652246 
3.1078652246 3.0932710339 3.0786768432 3.0786768432 3.0932710339 3.1078652246 3.1078652246 3.0932710339 3.0786768432 
3.0786768432 3.0786768432 3.0932710339 3.0932710339 3.1078652246 3.1078652246 3.1078652246 3.0932710339 3.0786768432 
3.0786768432 3.0932710339 3.1078652246 3.1078652246 3.1078652246 3.0932710339 3.0786768432 3.0786768432 3.0932710339 
3.1078652246 3.1078652246 3.0932710339 3.0786768432 3.0786768432 3.0786768432 3.0932710339 3.1078652246 3.1078652246 
3.0932710339 3.0786768432 3.0786768432 3.0932710339 3.1078652246 3.1078652246 3.0932710339 3.0786768432 3.0786768432 
3.0932710339 3.1078652246 3.1078652246 3.1078652246 3.1078652246 3.0932710339 3.0786768432 3.0786768432 3.0932710339 
3.1078652246 3.1078652246 3.0932710339 3.0786768432 3.0786768432 3.0932710339 3.1078652246 3.1078652246 3.0932710339 
3.0786768432 3.0786768432 3.0932710339 3.1078652246 3.1078652246 3.1078652246 3.0932710339 3.0786768432 3.0786768432 
3.0786768432 3.0786768432 3.0932710339 3.0932710339 3.1078652246 3.1078652246 3.0932710339 3.0786768432 3.0786768432 
3.0932710339 3.1078652246 3.1078652246 3.0932710339 3.0786768432 3.0786768432 3.0932710339 3.1078652246 3.1078652246 
3.1078652246 3.1078652246 3.0932710339 3.0786768432 3.0786768432 3.0932710339 3.1078652246 3.1078652246 3.0932710339 
3.0786768432 3.0786768432 3.0932710339 3.1078652246 3.1078652246 3.1078652246 3.0932710339 3.0786768432 3.0786768432 
3.0786768432 3.0932710339 3.1078652246 3.1078652246 3.0932710339 3.0786768432 3.0786768432 3.0786768432 3.0932710339 
3.1078652246 3.1078652246 3.0932710339 3.0786768432 3.0786768432 3.0932710339 3.1078652246 3.1078652246 3.0932710339 
3.0932710339 3.0786768432 3.0786768432 3.0932710339 3.0932710339 3.1078652246 3.1078652246 3.1224594153 3.1224594153 
3.1224594153 3.1224594153 3.1224594153 3.1078652246 3.1078652246 3.0932710339 3.0786768432 3.0786768432 3.0932710339 
3.1078652246 3.1224594153 3.1224594153 3.1224594153 3.1224594153 3.1224594153 3.1224594153 3.1224594153 3.1078652246 
3.0932710339 3.0786768432 3.0786768432 3.0932710339 3.1078652246 3.1224594153 3.1224594153 3.1224594153 3.1078652246 
3.0932710339 3.0786768432 3.0786768432 3.0786768432 3.0932710339 3.1078652246 3.1224594153 3.1224594153 3.1224594153 
3.1224594153 3.1078652246 3.0932710339 3.0786768432 3.0786768432 3.0932710339 3.1078652246 3.1078652246 3.1224594153 
3.1224594153 3.1224594153 3.1078652246 3.0932710339 3.0786768432 3.0786768432 3.0932710339 3.1078652246 3.1224594153 
3.1224594153 3.1224594153 3.1078652246 3.0932710339 3.0786768432 3.0786768432 3.0786768432 3.0786768432 3.0786768432 
3.0786768432 3.0932710339 3.1078652246 3.1224594153 3.1224594153 3.1224594153 3.1224594153 3.1078652246 3.0932710339 
3.0786768432 3.0786768432 3.0786768432 3.0786768432 3.0786768432 3.0640826525 3.0640826525 3.0640826525 3.0640826525 
3.0640826525 3.0640826525 3.0640826525 3.0786768432 3.0932710339 3.1078652246 3.1078652246 3.1224594153 3.1224594153 
3.1224594153 3.1078652246 3.1078652246 3.0932710339 3.0786768432 3.0786768432 3.0786768432 3.0786768432 3.0786768432 
3.0640826525 3.0640826525 3.0640826525 3.0640826525 3.0786768432 3.0932710339 3.1078652246 3.1224594153 3.1224594153 
3.1224594153 3.1078652246 3.0932710339 3.0786768432 3.0786768432 3.0786768432 3.0786768432 3.0786768432 3.0786768432 
3.0640826525 3.0640826525 3.0640826525 3.0786768432 3.0932710339 3.0932710339 3.1078652246 3.1224594153 3.1224594153 
3.1078652246 3.0932710339 3.0786768432 3.0786768432 3.0786768432 3.0786768432 3.0786768432 3.0786768432 3.0640826525 
3.0640826525 3.0640826525 3.0640826525 3.0786768432 3.0932710339 3.1078652246 3.1224594153 3.1224594153 3.1224594153 
3.1224594153 3.1078652246 3.0932710339 3.0786768432 3.0786768432 3.0786768432 3.0786768432 3.0786768432 3.0640826525 
3.0640826525 3.0786768432 3.0932710339 3.1078652246 3.1078652246 3.1224594153 3.1224594153 3.1224594153 3.1078652246 
3.0932710339 3.0786768432 3.0786768432 3.0786768432 3.0786768432 3.0640826525 3.0640826525 3.0640826525 3.0640826525 
3.0786768432 3.0932710339 3.1078652246 3.1224594153 3.1224594153 3.1078652246 3.0932710339 3.0786768432 3.0786768432 
3.0786768432 3.0786768432 3.0640826525 3.0640826525 3.0786768432 3.0932710339 3.1078652246 3.1224594153 3.1224594153 
3.1224594153 3.1078652246 3.0932710339 3.0786768432 3.0786768432 3.0786768432 3.0786768432 3.0786768432 3.0640826525 
3.0640826525 3.0786768432 3.0932710339 3.1078652246 3.1224594153 3.1224594153 3.1224594153 3.1078652246 3.0932710339 
3.0786768432 3.0786768432 3.0786768432 3.0640826525 3.0640826525 3.0640826525 3.0640826525 3.0786768432 3.0932710339 
3.1078652246 3.1224594153 3.1224594153 3.1224594153 3.1078652246 3.1078652246 3.0932710339 3.0786768432 3.0786768432 
3.0786768432 3.0786768432 3.0640826525 3.0640826525 3.0786768432 3.0932710339 3.1078652246 3.1224594153 3.1224594153 
3.1078652246 3.0932710339 3.0786768432 3.0786768432 3.0786768432 3.0640826525 3.0640826525 3.0640826525 3.0640826525 
3.0786768432 3.0932710339 3.0932710339 3.1078652246 3.1078652246 3.1224594153 3.1224594153 3.1078652246 3.0932710339 
3.0786768432 3.0786768432 3.0786768432 3.0786768432 3.0640826525 3.0640826525 3.0786768432 3.0932710339 3.1078652246 
3.1224594153 3.1224594153 3.1224594153 3.1224594153 3.1078652246 3.0932710339 3.0786768432 3.0786768432 3.0786768432 
3.0640826525 3.0640826525 3.0786768432 3.0932710339 3.1078652246 3.1224594153 3.1224594153 3.1078652246 3.0932710339 
3.0786768432 3.0786768432 3.0786768432 3.0786768432 3.0640826525 3.0640826525 3.0786768432 3.0932710339 3.1078652246 
3.1078652246 3.1224594153 3.1224594153 3.1078652246 3.0932710339 3.0786768432 3.0786768432 3.0786768432 3.0640826525 
3.0640826525 3.0786768432 3.0932710339 3.1078652246 3.1224594153 3.1224594153 3.137053606 3.137053606 3.137053606 
3.1224594153 3.1078652246 3.0932710339 3.0786768432 3.0786768432 3.0786768432 3.0786768432 3.0640826525 3.0640826525 
3.0640826525 3.0640826525 3.0786768432 3.0932710339 3.1078652246 3.1224594153 3.137053606 3.137053606 3.137053606 
3.137053606 3.1224594153 3.1224594153 3.1078652246 3.0932710339 3.0786768432 3.0786768432 3.0786768432 3.0786768432 
3.0640826525 3.0640826525 3.0786768432 3.0932710339 3.1078652246 3.1078652246 3.1224594153 3.1224594153 3.137053606 
3.137053606 3.137053606 3.137053606 3.1224594153 3.1078652246 3.0932710339 3.0786768432 3.0786768432 3.0786768432 
3.0786768432 3.0640826525 3.0640826525 3.0786768432 3.0932710339 3.1078652246 3.1224594153 3.137053606 3.137053606 
3.137053606 3.1224594153 3.1078652246 3.0932710339 3.0786768432 3.0786768432 3.0786768432 3.0640826525 3.0494884618 
3.0494884618 3.0494884618 3.0640826525 3.0786768432 3.0932710339 3.0932710339 3.1078652246 3.1224594153 3.1224594153 
3.137053606 3.137053606 3.137053606 3.1224594153 3.1078652246 3.0932710339 3.0786768432 3.0786768432 3.0786768432 
3.0640826525 3.0494884618 3.0494884618 3.0494884618 3.0494884618 3.0494884618 3.0640826525 3.0786768432 3.0932710339 
3.1078652246 3.1224594153 3.137053606 3.137053606 3.137053606 3.1224594153 3.1078652246 3.0932710339 3.0786768432 
3.0786768432 3.0786768432 3.0786768432 3.0640826525 3.0640826525 3.0494884618 3.0494884618 3.0494884618 3.0640826525 
3.0786768432 3.0932710339 3.1078652246 3.1078652246 3.1224594153 3.137053606 3.137053606 3.137053606 3.1224594153 
3.1078652246 3.0932710339 3.0932710339 3.0786768432 3.0786768432 3.0786768432 3.0640826525 3.0494884618 3.0494884618 
3.0494884618 3.0494884618 3.0640826525 3.0786768432 3.0932710339 3.1078652246 3.1224594153 3.1224594153 3.137053606 
3.137053606 3.137053606 3.137053606 3.1224594153 3.1078652246 3.0932710339 3.0786768432 3.0786768432 3.0786768432 
3.0786768432 3.0640826525 3.0494884618 3.0494884618 3.0640826525 3.0786768432 3.0932710339 3.1078652246 3.1224594153 
3.137053606 3.137053606 3.137053606 3.1224594153 3.1078652246 3.0932710339 3.0786768432 3.0786768432 3.0786768432 
3.0786768432 3.0640826525 3.0494884618 3.0494884618 3.0494884618 3.0640826525 3.0786768432 3.0932710339 3.0932710339 
3.1078652246 3.1224594153 3.137053606 3.137053606 3.1224594153 3.1078652246 3.0932710339 3.0786768432 3.0786768432 
3.0786768432 3.0640826525 3.0494884618 3.0494884618 3.0494884618 3.0640826525 3.0786768432 3.0932710339 3.1078652246 
3.1078652246 3.1224594153 3.137053606 3.137053606 3.137053606 3.137053606 3.1224594153 3.1078652246 3.0932710339 
3.0786768432 3.0786768432 3.0786768432 3.0640826525 3.0494884618 3.0494884618 3.0494884618 3.0640826525 3.0786768432 
3.0932710339 3.1078652246 3.1224594153 3.1224594153 3.137053606 3.137053606 3.1224594153 3.1224594153 3.1078652246 
3.0932710339 3.0786768432 3.0786768432 3.0786768432 3.0786768432 3.0640826525 3.0494884618 3.0494884618 3.0640826525 
3.0786768432 3.0932710339 3.1078652246 3.1224594153 3.137053606 3.137053606 3.1224594153 3.1078652246 3.0932710339 
3.0786768432 3.0786768432 3.0786768432 3.0786768432 3.0640826525 3.0494884618 3.0494884618 3.0494884618 3.0640826525 
3.0786768432 3.0932710339 3.1078652246 3.1078652246 3.1224594153 3.137053606 3.137053606 3.137053606 3.1224594153 
3.1078652246 3.0932710339 3.0786768432 3.0786768432 3.0786768432 3.0786768432 3.0786768432 3.0640826525 3.0494884618 
3.0348942711 3.0348942711 3.0348942711 3.0494884618 3.0640826525 3.0786768432 3.0932710339 3.1078652246 3.1224594153 
3.137053606 3.137053606 3.137053606 3.1224594153 3.1078652246 3.0932710339 3.0786768432 3.0786768432 3.0786768432 
3.0786768432 3.0640826525 3.0640826525 3.0494884618 3.0348942711 3.0348942711 3.0348942711 3.0494884618 3.0640826525 
3.0786768432 3.0786768432 3.0932710339 3.0932710339 3.1078652246 3.1224594153 3.1224594153 3.137053606 3.137053606 
3.137053606 3.1224594153 3.1078652246 3.0932710339 3.0786768432 3.0640826525 3.0640826525 3.0640826525 3.0640826525 
3.0786768432 3.0786768432 3.0786768432 3.0786768432 3.0786768432 3.0640826525 3.0494884618 3.0348942711 3.0348942711 
3.0348942711 3.0348942711 3.0494884618 3.0494884618 3.0640826525 3.0786768432 3.0932710339 3.1078652246 3.1224594153 
3.137053606 3.137053606 3.137053606 3.1224594153 3.1224594153 3.1078652246 3.0932710339 3.0786768432 3.0640826525 
3.0640826525 3.0640826525 3.0640826525 3.0786768432 3.0786768432 3.0786768432 3.0786768432 3.0786768432 3.0640826525 
3.0494884618 3.0348942711 3.0348942711 3.0348942711 3.0348942711 3.0494884618 3.0640826525 3.0640826525 3.0786768432 
3.0932710339 3.1078652246 3.1224594153 3.137053606 3.137053606 3.1224594153 3.1078652246 3.0932710339 3.0786768432 
3.0640826525 3.0640826525 3.0640826525 3.0786768432 3.0786768432 3.0786768432 3.0786768432 3.0640826525 3.0494884618 
3.0348942711 3.0348942711 3.0494884618 3.0640826525 3.0786768432 3.0932710339 3.1078652246 3.1224594153 3.137053606 
3.137053606 3.1224594153 3.1078652246 3.0932710339 3.0932710339 3.0786768432 3.0786768432 3.0640826525 3.0640826525 
3.0640826525 3.0640826525 3.0786768432 3.0786768432 3.0786768432 3.0640826525 3.0494884618 3.0348942711 3.0348942711 
3.0494884618 3.0640826525 3.0640826525 3.0786768432 3.0932710339 3.1078652246 3.1078652246 3.1224594153 3.137053606 
3.137053606 3.137053606 3.1224594153 3.1078652246 3.0932710339 3.0786768432 3.0640826525 3.0640826525 3.0640826525 
3.0786768432 3.0786768432 3.0786768432 3.0640826525 3.0494884618 3.0494884618 3.0348942711 3.0348942711 3.0203000804 
3.0203000804 3.0203000804 3.0203000804 3.0348942711 3.0348942711 3.0494884618 3.0640826525 3.0786768432 3.0786768432 
3.0932710339 3.1078652246 3.1224594153 2.9619233175 2.9619233175 2.9765175082 2.9765175082 2.991111699 2.991111699 
3.0057058897 3.0057058897 3.0203000804 3.0203000804 3.0348942711 3.0348942711 3.0494884618 3.0494884618 3.0640826525 
3.0640826525 3.0786768432 3.0786768432 3.0932710339 3.0932710339 3.1078652246 3.1078652246 3.1224594153 3.1224594153 
2.9619233175 2.9765175082 2.991111699 3.0057058897 3.0203000804 3.0348942711 3.0494884618 3.0640826525 3.0786768432 
3.0932710339 3.1078652246 3.1224594153 3.137053606 2.9619233175 2.9765175082 2.991111699 3.0057058897 3.0203000804 
3.0348942711 3.0494884618 3.0640826525 3.0786768432 3.0932710339 3.1078652246 3.1224594153 3.137053606 2.9619233175 
2.9765175082 2.991111699 3.0057058897 3.0203000804 3.0348942711 3.0494884618 3.0640826525 3.0786768432 3.0932710339 
3.1078652246 3.1224594153 3.137053606 2.9619233175 2.9765175082 2.991111699 3.0057058897 3.0203000804 3.0348942711 
3.0494884618 3.0640826525 3.0786768432 3.0932710339 3.1078652246 3.1224594153 3.137053606 2.9619233175 2.9765175082 
2.991111699 3.0057058897 3.0203000804 3.0348942711 3.0494884618 3.0640826525 3.0786768432 3.0932710339 3.1078652246 
3.1224594153 3.137053606 2.9619233175 2.9765175082 2.991111699 3.0057058897 3.0203000804 3.0348942711 3.0494884618 
3.0640826525 3.0786768432 3.0932710339 3.1078652246 3.1224594153 3.137053606 2.9619233175 2.9765175082 2.991111699 
3.0057058897 3.0203000804 3.0348942711 3.0494884618 3.0640826525 3.0786768432 3.0932710339 3.1078652246 3.1224594153 
3.137053606 2.9619233175 2.9765175082 2.991111699 3.0057058897 3.0203000804 3.0348942711 3.0494884618 3.0640826525 
3.0786768432 3.0932710339 3.1078652246 3.1224594153 3.137053606 2.9619233175 2.9765175082 2.991111699 3.0057058897 
3.0203000804 3.0348942711 3.0494884618 3.0640826525 3.0786768432 3.0932710339 3.1078652246 3.1224594153 3.137053606 
3.137053606 3.1224594153 3.1078652246 3.0932710339 3.0786768432 3.0640826525 3.0640826525 3.0786768432 3.0786768432 
3.0640826525 3.0494884618 3.0348942711 3.0203000804 3.0203000804 3.0203000804 3.0348942711 3.0494884618 3.0640826525 
3.0786768432 3.0932710339 3.1078652246 2.9619233175 2.9619233175 2.9765175082 2.9765175082 2.991111699 2.991111699 
3.0057058897 3.0057058897 3.0203000804 3.0203000804 3.0348942711 3.0348942711 3.0494884618 3.0494884618 3.0640826525 
3.0640826525 3.0786768432 3.0786768432 3.0932710339 3.0932710339 3.1078652246 3.1078652246 2.9619233175 2.9765175082 
2.991111699 3.0057058897 3.0203000804 3.0348942711 3.0494884618 3.0640826525 3.0786768432 3.0932710339 3.1078652246 
2.9619233175 2.9765175082 2.991111699 3.0057058897 3.0203000804 3.0348942711 3.0494884618 3.0640826525 3.0786768432 