# vtk DataFile Version 4.2
vtk output
ASCII
DATASET UNSTRUCTURED_GRID
POINTS 1740 double
2144.07 -94.44003 0 2911 0 0 16.54298 -37.82236 0 
5.09149 -21.30132 0 1.27433 -10.75385 0 0 0 0 
2.54575 15.14293 0 6.36291 23.76126 0 14.00014 34.89063 0 
30.50239 50.70793 0 33.39435 -52.93479 0 2050.91 -103.7862 0 
60.1465 -69.72165 0 88.83633 -83.2817 0 118.7656 -94.71113 0 
153.4168 -105.7022 0 199.5806 -117.771 0 261.4466 -130.7139 0 
345.846 -144.1892 0 460.3522 -157.0592 0 608.4185 -167.1903 0 
783.2313 -172.4016 0 941.0559 -172.4533 0 1063.409 -170.1096 0 
1164.153 -166.8746 0 1263.449 -162.682 0 1375.468 -156.8941 0 
1513.293 -148.414 0 1665.281 -137.5317 0 1791.864 -127.3721 0 
2195.451 -89.09491 0 2273.924 -80.67077 0 2383.731 -68.3513 0 
2517.64 -52.47337 0 2649.227 -35.9232 0 2740.773 -23.82991 0 
2804.387 -15.13419 0 2848.802 -8.916218 0 2881.944 -4.196067 0 
56.61447 67.79801 0 84.09687 81.25172 0 112.4783 92.48395 0 
142.1748 102.3504 0 174.8563 111.6168 0 213.124 120.8806 0 
260.3759 130.5151 0 324.6539 141.1779 0 418.1422 152.9178 0 
535.6656 162.9871 0 690.9154 170.4255 0 902.6513 172.7852 0 
1100.32 169.0517 0 1270.99 162.3262 0 1462.794 151.6837 0 
1631.287 140.0952 0 1747.993 131 0 1922.788 115.9027 0 
2069.56 101.951 0 2128.804 96.0021 0 2297.147 78.11721 0 
2414.379 64.80104 0 2554.023 47.99319 0 2673.693 32.73885 0 
2757.97 21.50315 0 2814.297 13.7575 0 2852.02 8.460961 0 
2882.272 4.148909 0 1791.052 127.4402 0 1366.894 157.3738 0 
1444.38 -152.8302 0 1547.039 146.1296 0 1589.287 -143.1614 0 
1878.731 119.8675 0 1997.072 108.9828 0 1185.654 166.0472 0 
1882.536 -119.5292 0 1971.323 -111.4145 0 1684.777 136.0292 0 
2099.317 -98.9855 0 2234.809 84.9091 0 2181.695 90.53914 0 
1728.573 -132.5703 0 1718.815 133.3509 0 1834.825 123.7132 0 
1960.305 112.4444 0 2033.69 105.4648 0 2099.184 98.99892 0 
2214.291 -77.868530552 396.8421 2955.512 12.135976091 396.8421 158.0786 -29.517943426 396.8421 
147.0109 -13.67256141 396.8421 143.3217 -3.5403211411 396.8421 142.09 6.8021797606 396.8421 
144.5505 21.385648361 396.8421 148.2398 29.696256426 396.8421 155.621 40.440398232 396.8421 
171.5701 55.735175882 396.8421 174.3652 -43.982738917 396.8421 2124.254 -86.894439048 396.8421 
200.2206 -60.012949526 396.8421 227.9488 -72.929049434 396.8421 256.8748 -83.789432774 396.8421 
290.3647 -94.206788615 396.8421 334.981 -105.60950698 396.8421 394.7733 -117.78447273 396.8421 
476.3434 -130.37614073 396.8421 587.0114 -142.26565622 396.8421 730.1145 -151.40300193 396.8421 
899.0676 -155.74311476 396.8421 1051.602 -155.23329217 396.8421 1169.853 -152.57950635 396.8421 
1267.221 -149.16297351 396.8421 1363.188 -144.85215602 396.8421 1471.452 -138.99892748 396.8421 
1604.657 -130.53292332 396.8421 1751.55 -119.78169026 396.8421 1873.891 -109.82118327 396.8421 
2263.949 -72.719170355 396.8421 2339.792 -64.620567146 396.8421 2445.918 -52.811496248 396.8421 
2575.338 -37.644938815 396.8421 2702.515 -21.892483134 396.8421 2790.992 -10.414044774 396.8421 
2852.473 -2.1754433953 396.8421 2895.4 3.7084868599 396.8421 2927.431 8.1712966433 396.8421 
196.807 72.296998798 396.8421 223.3682 85.364753342 396.8421 250.7983 96.298025639 396.8421 
279.4994 105.92197181 396.8421 311.0855 114.98075983 396.8421 348.0705 124.06020739 396.8421 
393.7383 133.53373683 396.8421 455.8617 144.06707189 396.8421 546.2162 155.75514367 396.8421 
659.8003 165.92580961 396.8421 809.846 173.69898299 396.8421 1014.485 176.76188498 396.8421 
1205.528 173.8472867 396.8421 1370.477 167.90235332 396.8421 1555.851 158.17650728 396.8421 
1718.696 147.40017774 396.8421 1831.49 138.86061392 396.8421 2000.426 124.5712172 396.8421 
2142.278 111.26553527 396.8421 2199.537 105.5672236 396.8421 2362.236 88.357198068 396.8421 
2475.539 75.475182592 396.8421 2610.501 59.142372223 396.8421 2726.16 44.256390255 396.8421 
2807.613 33.257719501 396.8421 2862.05 25.659889066 396.8421 2898.509 20.457523022 396.8421 
2927.749 16.218171206 396.8421 1873.106 135.50302061 396.8421 1463.165 163.40530875 396.8421 
1538.054 -134.92940273 396.8421 1637.272 153.02906853 396.8421 1678.104 -125.33097394 396.8421 
1957.846 128.33585686 396.8421 2072.22 117.98260723 396.8421 1288 171.22696457 396.8421 
1961.524 -102.1706204 396.8421 2047.334 -94.284253376 396.8421 1770.393 143.59008189 396.8421 
2171.038 -82.25465788 396.8421 2301.989 94.905925689 396.8421 2250.655 100.32243625 396.8421 
1812.721 -114.90967179 396.8421 1803.29 141.0734873 396.8421 1915.411 131.97952578 396.8421 
2036.686 121.28116889 396.8421 2107.61 114.62467296 396.8421 2170.909 108.4395789 396.8421 
2284.511 -63.737499979 793.6842 3000.027 22.129606469 793.6842 299.6143 -20.981736991 793.6842 
288.9304 -5.7694678203 793.6842 285.3691 3.970478915 793.6842 284.1801 13.921948234 793.6842 
286.5551 27.969585634 793.6842 290.1167 35.983272288 793.6842 297.2417 46.353055246 793.6842 
312.6379 61.134552079 793.6842 315.336 -34.845774652 793.6842 2197.597 -72.414104298 793.6842 
340.2947 -50.182003867 793.6842 367.0612 -62.514518281 793.6842 394.9839 -72.864905281 793.6842 
427.3123 -82.773900321 793.6842 470.3812 -93.594581485 793.6842 528.0998 -105.11063781 793.6842 
606.8411 -116.96313769 793.6842 713.6708 -128.06274595 793.6842 851.8104 -136.44469784 793.6842 
1014.904 -140.18340505 793.6842 1162.147 -139.34334207 793.6842 1276.298 -136.54914735 793.6842 
1370.288 -133.08369571 793.6842 1462.927 -128.77829331 793.6842 1567.436 -122.99039811 793.6842 
1696.021 -114.68423644 793.6842 1837.82 -104.20400686 793.6842 1955.917 -94.540589101 793.6842 
2332.447 -58.794624322 793.6842 2405.659 -51.030328914 793.6842 2508.105 -39.727873987 793.6842 
2633.037 -25.241190465 793.6842 2755.801 -10.224801864 793.6842 2841.209 0.70061555722 793.6842 
2900.561 8.5346074328 793.6842 2941.997 14.125996395 793.6842 2972.917 18.365029094 793.6842 
336.9995 77.1687007 793.6842 362.6396 89.843020983 793.6842 389.1182 100.46455378 793.6842 
416.8239 109.82900229 793.6842 447.3145 118.65810604 793.6842 483.0167 127.5237887 793.6842 
527.1009 136.79564757 793.6842 587.0697 147.13792073 793.6842 674.2905 158.67421278 793.6842 
783.9349 168.80658273 793.6842 928.7766 176.71151879 793.6842 1126.317 180.17868208 793.6842 
1310.735 177.79278486 793.6842 1469.963 172.378133 793.6842 1648.908 163.2971165 793.6842 
1806.105 153.11038836 793.6842 1914.987 144.98431905 793.6842 2078.064 131.31400258 793.6842 
2214.996 118.52247878 793.6842 2270.269 113.02934575 793.6842 2427.326 96.39293033 793.6842 
2536.699 83.901188362 793.6842 2666.98 68.022898496 793.6842 2778.628 53.517498573 793.6842 
2857.255 42.78213365 793.6842 2909.806 35.358263755 793.6842 2945.001 30.271569314 793.6842 
2973.224 26.124528551 793.6842 1955.16 141.7794587 793.6842 1559.437 168.19868584 793.6842 
1631.729 -118.99019304 793.6842 1727.505 158.4427602 793.6842 1766.921 -109.60579746 793.6842 
2036.96 134.92296052 793.6842 2147.368 124.98648723 793.6842 1390.347 175.43096604 793.6842 
2040.511 -87.141159029 793.6842 2123.346 -79.531116963 793.6842 1856.009 149.48958296 793.6842 
2242.759 -67.951782534 793.6842 2369.167 102.73096493 793.6842 2319.614 107.96631832 793.6842 
1896.869 -99.472685548 793.6842 1887.765 147.09369258 793.6842 1995.998 138.41122069 793.6842 
2113.066 128.15608356 793.6842 2181.531 121.75665151 793.6842 2242.634 115.79930628 793.6842 
2354.732 -51.561946792 1190.526 3044.539 30.385495766 1190.526 441.15 -12.591932608 1190.526 
430.8497 2.0188695565 1190.526 427.4164 11.383356629 1190.526 426.2701 20.958496704 1190.526 
428.5601 34.48695095 1190.526 431.9934 42.21100639 1190.526 438.8627 52.213412923 1190.526 
453.7057 66.486407641 1190.526 456.3069 -25.89054575 1190.526 2270.94 -59.874515422 1190.526 
480.3688 -40.580158453 1190.526 506.1737 -52.374733932 1190.526 533.0934 -62.259720547 1190.526 
564.26 -71.709561066 1190.526 605.7815 -82.011017693 1190.526 661.4265 -92.948857194 1190.526 
737.3385 -104.16802558 1190.526 840.33 -114.61472621 1190.526 973.5064 -122.40935301 1190.526 
1130.74 -125.73257343 1190.526 1272.693 -124.71764774 1190.526 1382.742 -121.89512649 1190.526 
1473.356 -118.46721695 1190.526 1562.666 -114.24683959 1190.526 1663.42 -108.60692342 1190.526 
1787.385 -100.55184885 1190.526 1924.09 -90.428308734 1190.526 2037.944 -81.12066865 1190.526 
2400.946 -46.8302283 1190.526 2471.527 -39.402622481 1190.526 2570.292 -28.599828043 1190.526 
2690.735 -14.76762145 1190.526 2809.091 -0.44327601847 1190.526 2891.43 9.9715679412 1190.526 
2948.647 17.436359177 1190.526 2988.597 22.762835503 1190.526 3018.403 26.800361382 1190.526 
477.1918 81.990580206 1190.526 501.9109 94.263331643 1190.526 527.4382 104.56134667 1190.526 
554.1485 113.6514449 1190.526 583.5435 122.23233871 1190.526 617.963 130.86056016 1190.526 
660.4633 139.89875369 1190.526 718.2775 150.00275499 1190.526 802.3645 161.31276141 1190.526 
908.0698 171.30546908 1190.526 1047.707 179.19898756 1190.526 1238.151 182.8655544 1190.526 
1415.942 180.8143218 1190.526 1569.449 175.76557922 1190.526 1741.965 167.1539126 1190.526 
1893.514 157.41474889 1190.526 1998.484 149.6125395 1190.526 2155.702 136.44338258 1190.526 
2287.714 124.08461181 1190.526 2341.001 118.76893421 1190.526 2492.415 102.64511513 1190.526 
2597.858 90.518050603 1190.526 2723.46 75.083475301 1190.526 2831.095 60.967807202 1190.526 
2906.899 50.513036092 1190.526 2957.56 43.279939355 1190.526 2991.49 38.322564026 1190.526 
3018.699 34.280194151 1190.526 2037.214 146.52953306 1190.526 1655.708 171.81450587 1190.526 
1725.403 -104.7231494 1190.526 1817.738 162.51993855 1190.526 1855.738 -95.641781746 1190.526 
2116.075 139.92446069 1190.526 2222.516 130.33360658 1190.526 1492.694 178.6282037 1190.526 
2119.498 -74.006735078 1190.526 2199.357 -66.700086132 1190.526 1941.625 153.94106866 1190.526 
2314.479 -55.598297167 1190.526 2436.346 108.79188536 1190.526 2388.573 113.86564504 1190.526 
1981.017 -85.868387032 1190.526 1972.24 151.6399698 1190.526 2076.584 143.28621103 1190.526 
[...]
POINT_DATA 1740
FIELD FieldData 1
Pressure 1 1740 double
3.1046240686 3.0166917302 3.009294533 2.9857375259 2.9788946586 2.959740952 2.9717830094 2.9889860807 3.020054611 
3.0342745444 3.0105782803 3.1085387755 3.0332714995 3.0477041861 3.0649304897 3.0641221619 3.0814616689 3.0867525144 
3.1073953959 3.1127778531 3.1310717555 3.1392235568 3.1413170955 3.1468561532 3.142148414 3.1381741803 3.1348757079 
3.1313114725 3.1248662128 3.1192899323 3.1020421234 3.0986577696 3.0930637105 3.085032901 3.0741825219 3.0641576838 
3.0542439101 3.0456084577 3.0373173021 3.0701654768 3.0819285423 3.0944738039 3.1078095 3.1142100955 3.1206256531 
3.1279406016 3.1356397607 3.1513795391 3.1637443186 3.1810326298 3.1920648445 3.1985715522 3.2046345273 3.2105745629 
3.2145600223 3.2176777478 3.2187273081 3.1769256465 3.0774840448 3.0772005242 3.0731901389 3.065276417 3.0560534563 
3.0456641258 3.0357818599 3.0285478388 3.0266701062 3.2175501421 3.208287428 3.1337187487 3.2118366589 3.1281428759 
3.2182814758 3.2187029042 3.2052995666 3.1155449953 3.1119225205 3.2156231108 3.1064866899 3.0778603679 3.0742509684 
3.1218863929 3.2172428029 3.2180148686 3.2199340951 3.2297458617 3.0600630519 3.1016661435 3.0219187797 3.0275424185 
3.0010451608 3.0078993108 2.9864798951 2.9939659545 3.0057370693 3.0341108604 3.052680988 3.0349287539 3.1059331588 
3.0552603652 3.0676865936 3.0810473409 3.0851205621 3.1003323938 3.1098065976 3.1228663117 3.1281043588 3.1379976796 
3.142202644 3.1457542742 3.1458252721 3.1415535563 3.1369997629 3.1319079756 3.1276760149 3.1217462493 3.1165308155 
3.0993951514 3.0953812814 3.0897172325 3.0818460968 3.0709238512 3.0608716235 3.0511153886 3.0435497287 3.0284486504 
3.0858425317 3.1069871867 3.1192837315 3.127707733 3.1369616655 3.1414773359 3.147023 3.1575196544 3.1692721738 
3.1779576646 3.1877191585 3.1956654336 3.2019859886 3.2084693639 3.2120275868 3.214991001 3.2175399271 3.2200402209 
3.092088867 3.0969456167 3.0878679487 3.0819950854 3.0735792288 3.0626919556 3.0523460123 3.0421700302 3.0361029198 
3.0359844201 3.2182056759 3.2102409062 3.1307237519 3.2145287993 3.1244488617 3.2194862434 3.2194459192 3.2068374373 
3.1126831378 3.109086686 3.2162243526 3.1040306456 3.0917242596 3.0972481817 3.1193609622 3.2169443314 3.2182324551 
3.2194696042 3.1991008174 3.0991054604 3.0996942899 3.0227154601 3.0278525843 3.0002484084 3.0023424385 2.98460855 
2.9967533164 3.0104341806 3.0393336417 3.0605661814 3.0431994144 3.1039148227 3.058094534 3.0770940035 3.0951787381 
3.1018585718 3.1141174676 3.1223189392 3.135006867 3.1410958852 3.1475838181 3.1497655516 3.1491041789 3.1471610562 
3.1414405422 3.135811914 3.1307775436 3.1250480996 3.1198062297 3.1146845759 3.0973636502 3.0936351829 3.0877498864 
3.0800257817 3.0689386276 3.0587281387 3.0495030756 3.0423365949 3.0285723177 3.0935930324 3.1153148693 3.1337961895 
3.1427740061 3.1527956436 3.1616282492 3.1715554071 3.1758700071 3.1844463979 3.1943316532 3.2001188529 3.2058131937 
3.2082210338 3.2147881308 3.2177650901 3.2184312501 3.2200177742 3.2228750118 3.0855546511 3.0904602002 3.0884779836 
3.0832360396 3.0755279682 3.0650739587 3.0554262237 3.0454665045 3.0386306453 3.039811299 3.2207253604 3.2165993376 
3.1283755478 3.2183422723 3.1223854957 3.2215751217 3.218760558 3.2121183234 3.1107848011 3.1071058865 3.2187882523 
3.1021059462 3.0905887444 3.0912074441 3.117428668 3.2192592254 3.22127591 3.222563747 3.0825867223 3.0845691977 
3.0983586841 3.0232313729 3.0284245107 3.0002120105 3.0026927878 2.982779363 2.9927337789 3.0073384965 3.0399750671 
3.0617123167 3.0425286445 3.1025704148 3.062900955 3.0803930289 3.0992965323 3.1082202231 3.1200868263 3.1286716639 
3.1406687757 3.1477277833 3.1535956784 3.154410806 3.1524222351 3.1485058182 3.1419687506 3.1358835937 3.1302450761 
3.1243553054 3.1184618972 3.1134133178 3.0961283983 3.0923843058 3.086733504 3.0790492319 3.0681514294 3.0579813436 
3.0491000148 3.0419702603 3.0286090252 3.0977043316 3.1210707842 3.1363531793 3.1484469055 3.156116549 3.1670416898 
3.1794875859 3.1893326595 3.1973213467 3.2068519933 3.2124571212 3.2172908644 3.2178344991 3.2233860666 3.2255998723 
3.2254438423 3.2261551284 3.2341519779 3.0896365877 3.0895600047 3.0877594199 3.0829968059 3.0751932821 3.0651502266 
3.0556127771 3.0462041819 3.0390217707 3.0406601562 3.2264775318 3.2247070082 3.1277352733 3.2256700555 3.1212784416 
3.2268362544 3.0817914399 3.2207910603 3.1095663429 3.1056795198 3.2254858308 3.100703553 3.0897427251 3.0900510721 
3.1159891459 3.2255203756 3.2266965281 3.1394894957 3.0853126032 3.0895435597 3.0975568169 3.0231202157 3.0306518477 
3.0011406819 3.0084053899 2.9871128251 2.9948758531 3.0084553206 3.0421605916 3.0630308784 3.0436789376 3.1016694861 
3.0652653333 3.0826111683 3.0994992776 3.1093490263 3.1219063951 3.1323225868 3.1432937519 3.151042712 3.1572616152 
3.1569389409 3.153705784 3.1484675226 3.1414140163 3.135037351 3.1291397333 3.1234947595 3.1176256967 3.112358039 
3.0953072911 3.0915629103 3.0860135989 3.0783697833 3.0676943725 3.0576887984 3.048990125 3.0417358613 3.0288664158 
3.0992173277 3.1231063684 3.1380694156 3.1512207613 3.160233031 3.1716216715 3.1830856145 3.1890244438 3.2002320898 
3.2126391735 3.2213926496 3.2260303402 3.2271781766 3.2317728387 3.2333316886 3.2328282525 3.2332844955 3.1978104171 
3.0888388991 3.0892161101 3.0870267716 3.082069899 3.07421118 3.064364311 3.0549396821 3.0456706278 3.038451343 
3.0405819017 3.23352917 3.2332328463 3.1268721864 3.2330987611 3.1204429913 3.2338589479 3.0870633194 3.2297641728 
3.1085749992 3.1046579341 3.2327252967 3.0996772525 3.0889623916 3.0893312143 3.1150447258 3.232821945 3.2336185542 
3.0764550525 3.0879440026 3.0892635842 3.0968367954 3.022701753 3.0317914635 3.0025604632 3.010431568 2.9880879364 
2.9964799563 3.0099929801 3.0431629615 3.0650095191 3.0446535314 3.100833739 3.0664794984 3.0844082026 3.1004902136 
3.1107756391 3.1233895319 3.1345401346 3.1458070237 3.1535353172 3.1603105568 3.1589383557 3.1545113624 3.1480763972 
3.1406938179 3.1342094413 3.1282181409 3.1226178875 3.1167399099 3.1114257249 3.0945811541 3.0908329953 3.0854035391 
3.0777803183 3.0672485817 3.0573187025 3.0487469918 3.0413746773 3.0292171943 3.1008177488 3.1250631052 3.1401464977 
3.1533941897 3.1625043301 3.1743859616 3.1871443698 3.1944618611 3.2060000418 3.2178725086 3.2283796982 3.2338312143 
3.2358596599 3.2410663696 3.2423502297 3.2408734275 3.2407486382 3.0925162216 3.0884844003 3.087463021 3.0851567675 
3.0804084608 3.0728840669 3.063308932 3.0540778357 3.0451352538 3.037909989 3.0401488361 3.2408291298 3.2416588488 
3.125949751 3.2416130199 3.1195526299 3.2433079763 3.0873955189 3.2385014477 3.1076844224 3.1038128503 3.2404500599 
3.0989405301 3.0870450868 3.0873195045 3.1141624426 3.2404287839 3.2403986043 3.0856312762 3.0878749435 3.0877617987 
3.0962641559 3.0224698329 3.0321697416 3.002768346 3.0100993215 2.9876225989 2.9964186751 3.0100883324 3.0434025065 
3.0655306875 3.045179796 3.1002541184 3.0671497162 3.0853272413 3.1013431082 3.1118903211 3.1246104073 3.1361841721 
3.1475389138 3.1553085541 3.1624789715 3.1603916474 3.1550179696 3.1477530649 3.1402401301 3.1337487246 3.1277241754 
3.1220732961 3.116132755 3.1108505521 3.094033984 3.0902809947 3.0849431183 3.0773423735 3.066913534 3.0569941653 
3.0485022287 3.0410173488 3.0294802936 3.1014147119 3.1259587267 3.1414417995 3.1548157431 3.1642486322 3.1762408613 
3.188977597 3.1970450077 3.209109712 3.2221165346 3.2334375912 3.2403086031 3.2435096904 3.2495254175 3.2511393112 
3.2498690275 3.2491169094 3.0835315361 3.0882278143 3.0869387006 3.0839482044 3.0794532758 3.0722629328 3.0627995293 
3.0536929798 3.0449340039 3.0376830709 3.0401582645 3.2489154698 3.2505689165 3.125447102 3.2508432369 3.1189800779 
3.2596966843 3.0883826381 3.2465650739 3.1071040661 3.1032201572 3.2491740854 3.098338468 3.0857946324 3.0865869711 
3.1134795629 3.2488032442 3.2491400231 3.0873637646 3.0879169293 3.0880237091 3.0959237204 3.0223316511 3.0325757926 
3.003031517 3.0102504882 2.9878258343 2.9965130751 3.0100844566 3.0436602829 3.0657795017 3.0455932685 3.09996714 
3.0676416752 3.0858036534 3.1017376654 3.1125035079 3.1254187605 3.137345078 3.1486900788 3.1565362223 3.1640276709 
3.1614638256 3.1552767467 3.14751674 3.1399631841 3.1335062098 3.1274991282 3.1216018488 3.115780678 3.1104597467 
3.0937073152 3.0899369116 3.0846871415 3.077097486 3.0667291582 3.0567641503 3.048333891 3.0407301851 3.029712193 
3.1017103018 3.1264682493 3.1421408556 3.1556444978 3.1652352695 3.1773112186 3.1901237462 3.1988119489 3.2111609297 
3.2246979585 3.236667996 3.2447952993 3.2494898292 3.2562066787 3.2585676892 3.2581290473 3.2575048744 3.0840802979 
3.0861310423 3.0853838954 3.0832613025 3.0788138587 3.0717390645 3.062421697 3.0534962362 3.0448147575 3.0374732369 
3.0401549235 3.25733329 3.2581515324 3.1250463445 3.2584706492 3.1186144942 3.2551766387 3.0865063036 3.2530216632 
3.1067388674 3.1029453301 3.257697765 3.0979748729 3.0850702703 3.0855780459 3.113060273 3.2572432888 3.2578213203 
3.0882329896 3.0859439741 3.0862533669 3.0957869809 3.0220509412 3.0329918058 3.0033918707 3.010552518 2.9881137172 
2.9968178393 3.0103497118 3.0440015153 3.0661390501 3.0459772901 3.099805171 3.0680073312 3.0863919463 3.1023749369 
3.1133216151 3.1262286979 3.138378551 3.1497072336 3.1577655258 3.1653375864 3.1624342411 3.1555717765 3.1475719975 
3.1399558308 3.1334547802 3.127476436 3.1214457613 3.1156463286 3.1102970351 3.0935488941 3.0897618325 3.0845915365 
3.0769548944 3.0666871703 3.0565710546 3.0481883978 3.0405047681 3.0298102771 3.102075585 3.1269389769 3.1427630753 
3.1563428806 3.1660086123 3.1781536489 3.1909369031 3.2000105932 3.2126275927 3.2264814036 3.2388046815 3.2480859486 
3.2536714316 3.2612460983 3.2650976301 3.2648260685 3.2650399045 3.0826045386 3.0832856509 3.0832355452 3.0806084945 
3.0762832394 3.0695190319 3.0606182489 3.0520314722 3.0435521989 3.0362289509 3.0391514994 3.2652786293 3.2634178115 
3.12494874 3.2651512184 3.1185067276 3.2662002574 3.0812219151 3.2576227516 3.1065902901 3.1028427736 3.2647449229 
3.0977492998 3.0826193451 3.0826279435 3.1128726676 3.2645373819 3.2652622008 3.0827547328 3.0819076289 3.0835338404 
3.0957430091 3.0215891151 3.0333502644 3.003732575 3.010890393 2.9884010022 2.9971260826 3.0106585461 3.0443176192 
3.0665286037 3.0462497957 3.0996453819 3.0682512535 3.08672034 3.1027952956 3.1138715174 3.1268644095 3.1391840883 
3.1506175768 3.1589405071 3.1665714897 3.1634586372 3.1560937551 3.1479441332 3.1401751716 3.1336261704 3.1276129726 
3.1215968181 3.1157306942 3.1103020437 3.0934941524 3.0897183116 3.0846196468 3.0769207287 3.0667279143 3.0565468836 
3.0481918789 3.0404560278 3.0300474665 3.1024787028 3.1274063082 3.1433513633 3.1569641083 3.1667160133 3.1788750374 
3.1916309124 3.2009454813 3.2137728008 3.2278218525 3.240360468 3.2500154088 3.2564536131 3.2646355475 3.2685978482 
3.2699850412 3.2704536672 3.0779342221 3.0790170563 3.0787810526 3.0768766263 3.0727759817 3.0663915971 3.057681276 
3.0493082462 3.0412466577 3.0340807939 3.0370390507 3.2706957928 3.2672089394 3.1251027961 3.2697797972 3.1186385933 
3.2806686701 3.0781025586 3.2607665569 3.1066757386 3.1028648284 3.2701519182 3.0976230705 3.0785395923 3.0784450602 
3.1128483945 3.2701884271 3.2702865143 3.0777987551 3.078262567 3.0783554072 3.0958064798 3.021275952 3.0336546113 
3.0040088486 3.0112007137 2.9886966035 2.9974317002 3.0109453331 3.0446331788 3.0669340686 3.0463696826 3.0998423127 
3.0683717855 3.0869003986 3.1030560403 3.1142560126 3.127307757 3.1397812321 3.1514169539 3.1600905039 3.1677565398 
3.1645862421 3.1568813345 3.1485781645 3.1406108946 3.1340335729 3.1279317612 3.1220511966 3.1160330992 3.1105192078 
3.0936027984 3.0897949945 3.0847452238 3.0770018393 3.0668974216 3.0566683651 3.0483423766 3.0405526852 3.0306708679 
3.1029218421 3.1278728609 3.1439213141 3.1575477529 3.1673480109 3.1795011073 3.1922378775 3.2017060295 3.2146859047 
3.2288311387 3.2415228623 3.2513080189 3.2581267171 3.2668699733 3.2710965251 3.2728762834 3.27395257 3.0778141929 
3.0768405327 3.075946027 3.0741394911 3.0702346513 3.06397284 3.0550503813 3.0466969283 3.038914735 3.0320367363 
3.0347038824 3.2741773686 3.2695673782 3.1255642179 3.2725255808 3.1189923004 3.2885467927 3.0756339664 3.262654887 
3.1068998802 3.1032240431 3.2734712656 3.0976257142 3.0758396012 3.0757185767 3.113053865 3.2735940853 3.274983553 
3.0734693629 3.0759378931 3.0766565108 3.0960658194 3.0212831414 3.0338790758 3.0042020788 3.0113042897 2.9889769554 
2.9977521086 3.0112469514 3.0449786995 3.0673682038 3.0464254652 3.1001246497 3.0684076279 3.0869083168 3.1031728944 
3.1145154691 3.1276276183 3.1402260327 3.1521786041 3.1611547852 3.1689517974 3.1659187236 3.1580178466 3.1495118385 
3.1412971056 3.1346794543 3.1284534102 3.1225460855 3.1163697686 3.1108292255 3.0938509294 3.0900103138 3.0849652249 
3.0771685034 3.0671242612 3.0568410939 3.0485284341 3.0407218836 3.0312143996 3.103422019 3.1283759891 3.1445022223 
3.1581287906 3.167968352 3.1801024845 3.1927985324 3.2024032522 3.2155192482 3.2296607231 3.2424360697 3.2522937656 
3.2592212087 3.2681834348 3.2725893359 3.2747451285 3.2760978771 3.0771700467 3.0753558504 3.0742789939 3.0722099216 
3.0682977586 3.0620573134 3.0530655181 3.044771992 3.0371597157 3.0306798901 3.0328217774 3.2769515652 3.2711314707 
3.1260601205 3.2743042417 3.1194211821 3.2892704612 3.0754067854 3.2638281418 3.1072181627 3.1035828373 3.2754156621 
3.0978598848 3.0735574418 3.073832163 3.1133336843 3.2756779225 3.2762429458 3.0726421255 3.0749296723 3.0750903364 
3.0963720642 3.0216041381 3.0340948778 3.0042978066 3.0112094155 2.9892637085 2.9981004688 3.0115945471 3.0453805322 
3.0678431348 3.0463776296 3.1004504261 3.0682641303 3.0868687212 3.1033068724 3.1148129787 3.12794325 3.1406441345 
3.1528918871 3.1623551297 3.1703124101 3.1676147514 3.1596655416 3.1507921389 3.1422364549 3.1354828976 3.1291437819 
3.1231818573 3.1169058789 3.1112643738 3.0941363021 3.0902671579 3.0852253647 3.0773620118 3.0673251035 3.0569941075 
3.0486753297 3.0408784251 3.0313856109 3.1040131461 3.1289445246 3.1451706105 3.1588283218 3.1686740665 3.1808049042 
3.193438985 3.2031534043 3.2164288884 3.2304616951 3.2432380769 3.2531561931 3.260058717 3.2689863781 3.2736855696 
3.2759390067 3.2774876631 3.076338953 3.0735632827 3.072772904 3.0708368232 3.067014988 3.0609616067 3.0521014833 
3.043852085 3.0365028833 3.0303837796 3.0322005852 3.2780513692 3.2721165618 3.1267168777 3.2754531769 3.1199128482 
3.2890533716 3.0743621215 3.2646299891 3.1076146877 3.1039268741 3.2766739546 3.0981473146 3.0722749977 3.0726934223 
3.1137965971 3.2769438639 3.2785910848 3.0713220022 3.0736064238 3.0732622194 3.0966868128 3.0221100555 3.0344352348 
3.0044357515 3.0111147799 2.989700029 2.998552511 3.0120315827 3.0460717062 3.0685098059 3.0461035864 3.1007880429 
3.0680261427 3.0867005819 3.1033405352 3.1150351127 3.1281975293 3.1409729798 3.1535984432 3.1635477076 3.1716614989 
3.1694783148 3.16171858 3.1522158286 3.143247261 3.1362485287 3.1297587314 3.123724157 3.117346829 3.1116761733 
3.0944154498 3.0905267087 3.0854581966 3.0775547965 3.0674676693 3.0571173976 3.0487705237 3.0410183856 3.0310736781 
3.1048433168 3.1297057249 3.1460862907 3.1597505794 3.1695887346 3.1816928849 3.1942940962 3.2040499096 3.217491191 
3.2312998944 3.2440502063 3.2539062934 3.2607863497 3.2696261939 3.2744185407 3.2768787469 3.2783862065 3.0716468949 
3.0730276376 3.0726543571 3.0711027177 3.0675367994 3.061699073 3.0529677653 3.0446785269 3.0374325679 3.031359106 
3.032872905 3.2793189492 3.2728440209 3.1273440347 3.2762432646 3.120415475 3.2859979327 3.073281561 3.265273925 
3.1079777345 3.1042253368 3.2776247954 3.0984767231 3.0724691602 3.0727528667 3.114219929 3.2779073733 3.280950148 
3.0720545696 3.0725992172 3.0728147365 3.0970239069 3.0229741798 3.0346603039 3.0046864076 3.0112677913 2.9904194438 
2.9992071751 3.0126406059 3.0472327778 3.0694781889 3.045744292 3.101123255 3.0675635002 3.0863060547 3.1031668845 
3.1149930408 3.1281528659 3.1409133178 3.1540876005 3.1646492745 3.1729277512 3.171433261 3.1640549504 3.1536160181 
3.1440911718 3.1367520863 3.1300538817 3.1240770994 3.1176833786 3.112100273 3.0947176913 3.0908608849 3.0857136316 
3.0778255723 3.0676151114 3.0572463694 3.0488474962 3.0411127354 3.0302525072 3.1058162971 3.1307125651 3.1469950801 
3.1606329744 3.1705404696 3.182506113 3.1951797127 3.2050498354 3.2185410832 3.2321764902 3.2447361418 3.2549651907 
3.2616967986 3.2703494685 3.2756535832 3.2782604555 3.279871148 3.0757472481 3.0755377397 3.0748365211 3.0733508403 
3.069715355 3.0640967772 3.0554954998 3.0472337984 3.0399301306 3.0336151326 3.0352218929 3.2812449736 3.2736218067 
3.1277544133 3.277424972 3.120766035 3.2395248806 3.074770642 3.2660316009 3.1082729387 3.1045444354 3.2788772565 
3.0988672708 3.0747341562 3.0748442008 3.1146878562 3.2792823768 3.2935813376 3.0760813564 3.0750572305 3.0757009249 
3.0974248425 3.023812601 3.0334621892 3.0039036489 3.0112937224 2.9901827592 2.9995302367 3.0130147826 3.0474486128 
3.0701677907 3.0447549752 3.1017049855 3.0661023012 3.0851256801 3.1022784972 3.1144050089 3.1275260684 3.1398074838 
3.1544613797 3.1646147477 3.174247801 3.1740988892 3.1670089105 3.1552740354 3.144977638 3.137175234 3.1302939415 
3.1242631521 3.1187528821 3.1129028884 3.0951353847 3.0912611483 3.0860156854 3.0781179592 3.067701921 3.0573058567 
3.0488316433 3.0410428187 3.0288728897 3.1064507747 3.1315397701 3.1476996343 3.1611794558 3.1712197411 3.1832283712 
3.1959297394 3.206021582 3.2196033469 3.2332187806 3.2462574944 3.2561275801 3.2631331857 3.2719802498 3.2786442326 
3.281025246 3.2820573922 3.0744330302 3.0775003462 3.0780165982 3.0764854011 3.072621371 3.0670401397 3.0584090611 
3.0503746807 3.0429004756 3.0363782305 3.0383305449 3.2818085706 3.2756169958 3.1281141739 3.2801566201 3.1210929778 
3.1160645722 3.076381188 3.2673316323 3.1089428783 3.1049739543 3.2811229549 3.0993787082 3.0779643817 3.0777730514 
3.1156420087 3.2813665761 3.264389712 3.0753290272 3.0769888662 3.077641019 3.0977971008 3.0237362123 3.0323611102 
3.0016600203 3.0063981508 2.988768085 2.9983934419 3.0126195095 3.0468199043 3.0702646854 3.0431229962 3.1018585565 
3.0648242216 3.0835860858 3.1015416047 3.1132683202 3.126493283 3.1384201856 3.1554230952 3.166247088 3.176961919 
3.1794140396 3.1715005992 3.1583079377 3.1461928042 3.137616417 3.1308801962 3.1245204877 3.118516308 3.1135647156 
3.0956700108 3.091699019 3.0863582691 3.0786906978 3.0678521635 3.0572945345 3.0485483314 3.0407535207 3.0269480795 
3.1071693807 3.1322116992 3.1487113326 3.1623919319 3.1725004274 3.1844589639 3.1969192669 3.2078962868 3.2220038249 
3.2361020227 3.2495722589 3.2626543854 3.2671056136 3.2755672184 3.280867217 3.2810259638 3.2807809026 3.0719714328 
3.0784043012 3.0785310223 3.079180569 3.0751613469 3.0694433903 3.0605105405 3.0527592739 3.0448864771 3.0381183064 
3.0408218104 3.2679470711 3.2788053263 3.1281316226 3.2810349795 3.1215900035 3.0654498782 3.0754515741 3.2706855288 
3.1089188 3.1051382961 3.2809803229 3.0998782874 3.0800060189 3.0798036623 3.1161625438 3.280453789 3.0664540877 
3.074427479 3.0765459463 3.0789434965 3.0981915291 3.0261811132 3.0339196093 3.0046508688 3.007963806 2.990052362 
3.0008209434 3.0155739089 3.0505740919 3.0716626835 3.0459117142 3.1017564751 3.0651571907 3.0854077499 3.1013563532 
3.1149300742 3.1282778784 3.1402179134 3.1599615676 3.180805758 3.1844988003 3.1833764688 3.1741312513 3.1587077547 
3.1464146501 3.1373874019 3.1304104799 3.1235936785 3.1164282824 3.1112408956 3.0953108123 3.0928985428 3.0871472836 
3.0777883055 3.0681494129 3.0568535577 3.0476627615 3.0391166736 3.0249176414 3.1057797246 3.132879979 3.153845884 
3.1678540064 3.1768534606 3.193561653 3.2025042413 3.2130409504 3.2312354456 3.2433314927 3.2591933974 3.2682935715 