# vtk DataFile Version 4.2
vtk output
ASCII
DATASET POLYDATA
POINTS 6529 float
2457.85 -3224.16 5800 2464.84 -3232.68 5800 2492.72 -3224.16 5800 
2451.51 -3211.16 5800 2493.84 -3223.82 5800 2522.84 -3214.25 5800 
2530.22 -3211.16 5800 2444.74 -3198.16 5800 2551.84 -3202.11 5800 
2561.3 -3198.16 5800 2437.97 -3185.16 5800 2580.84 -3189.98 5800 
2592.37 -3185.16 5800 2432.02 -3172.16 5800 2435.84 -3180.55 5800 
2609.85 -3177.84 5800 2623.44 -3172.15 5800 2426.2 -3159.16 5800 
2638.85 -3165.71 5800 2654.52 -3159.15 5800 2420.39 -3146.16 5800 
2667.85 -3153.57 5800 2685.59 -3146.15 5800 2414.57 -3133.16 5800 
2696.85 -3141.44 5800 2716.67 -3133.15 5800 2408.76 -3120.16 5800 
2725.85 -3129.3 5800 2747.74 -3120.15 5800 2402.95 -3107.16 5800 
2406.84 -3115.87 5800 2754.86 -3117.17 5800 2778.81 -3107.14 5800 
2397.13 -3094.16 5800 2783.86 -3105.03 5800 2809.89 -3094.14 5800 
2391.32 -3081.15 5800 2812.86 -3092.9 5800 2840.96 -3081.14 5800 
2385.5 -3068.15 5800 2841.86 -3080.65 5800 2851.51 -3068.14 5800 
2379.69 -3055.15 5800 2857.95 -3055.14 5800 2373.88 -3042.15 5800 
2377.85 -3051.03 5800 2864.39 -3042.14 5800 2368.06 -3029.15 5800 
2870.84 -3029.13 5800 2362.25 -3016.15 5800 2870.87 -3029.08 5800 
2877.28 -3016.13 5800 2356.43 -3003.15 5800 2883.72 -3003.13 5800 
2350.62 -2990.15 5800 2890.17 -2990.13 5800 2344.8 -2977.15 5800 
2348.85 -2986.2 5800 2896.61 -2977.13 5800 2338.99 -2964.15 5800 
2899.87 -2970.55 5800 2903.05 -2964.13 5800 2333.18 -2951.15 5800 
2909.5 -2951.13 5800 2327.36 -2938.15 5800 2915.94 -2938.13 5800 
2321.55 -2925.15 5800 2922.38 -2925.12 5800 2315.73 -2912.14 5800 
2319.86 -2921.36 5800 2928.83 -2912.12 5800 2309.92 -2899.14 5800 
2928.88 -2912.02 5800 2935.27 -2899.12 5800 2304.1 -2886.14 5800 
2941.71 -2886.12 5800 2298.29 -2873.14 5800 2948.16 -2873.12 5800 
2292.48 -2860.14 5800 2954.6 -2860.12 5800 2286.66 -2847.14 5800 
2290.86 -2856.52 5800 2957.88 -2853.49 5800 2961.04 -2847.12 5800 
2275.4 -2834.14 5800 2967.49 -2834.12 5800 2258.84 -2821.14 5800 
2261.86 -2823.51 5800 2973.93 -2821.11 5800 2242.29 -2808.14 5800 
2980.37 -2808.11 5800 2225.73 -2795.14 5800 2232.86 -2800.74 5800 
2986.81 -2795.11 5800 2209.17 -2782.14 5800 2986.89 -2794.96 5800 
2992.91 -2782.11 5800 2192.62 -2769.14 5800 2203.86 -2777.97 5800 
2998.45 -2769.11 5800 2175.94 -2756.14 5800 3003.84 -2756.11 5800 
2156.53 -2743.14 5800 2174.86 -2755.33 5800 3009.24 -2743.11 5800 
2137 -2730.14 5800 2145.86 -2736.04 5800 3014.64 -2730.11 5800 
2117.46 -2717.14 5800 3015.89 -2727.08 5800 3020.04 -2717.1 5800 
2097.92 -2704.14 5800 2116.86 -2716.74 5800 3025.44 -2704.1 5800 
2078.39 -2691.14 5800 2087.86 -2697.44 5800 3030.83 -2691.1 5800 
2058.85 -2678.14 5800 2058.86 -2678.14 5800 3036.23 -2678.1 5800 
2039.32 -2665.13 5800 3041.63 -2665.1 5800 2019.78 -2652.13 5800 
2029.87 -2658.85 5800 3044.9 -2657.22 5800 3047.03 -2652.1 5800 
2000.46 -2639.13 5800 2000.87 -2639.55 5800 3052.42 -2639.1 5800 
1991.78 -2626.13 5800 3057.82 -2626.1 5800 1987.27 -2613.13 5800 
3063.22 -2613.1 5800 1984.57 -2600.13 5800 3068.62 -2600.09 5800 
1984.8 -2587.13 5800 3073.91 -2587.35 5800 3074.01 -2587.09 5800 
1985.03 -2574.13 5800 3079.41 -2574.09 5800 1985.26 -2561.13 5800 
3084.81 -2561.09 5800 1985.48 -2548.13 5800 3093.56 -2548.09 5800 
1985.71 -2535.13 5800 3102.91 -2538.32 5800 3105.92 -2535.09 5800 
1985.94 -2522.13 5800 3119.46 -2522.09 5800 1986.16 -2509.12 5800 
3131.92 -2510.26 5800 3133.15 -2509.08 5800 1986.39 -2496.12 5800 
3146.84 -2496.08 5800 1986.62 -2483.12 5800 3160.52 -2483.08 5800 
1986.85 -2470.12 5800 3160.92 -2482.71 5800 3174.21 -2470.08 5800 
1987.07 -2457.12 5800 3187.9 -2457.08 5800 1987.3 -2444.12 5800 
3189.92 -2455.16 5800 3201.59 -2444.08 5800 1987.53 -2431.12 5800 
3215.28 -2431.08 5800 1987.76 -2418.12 5800 3218.92 -2427.61 5800 
3228.97 -2418.07 5800 1987.98 -2405.12 5800 3242.65 -2405.07 5800 
1988.21 -2392.12 5800 3247.93 -2395.47 5800 3249.03 -2392.07 5800 
1988.44 -2379.11 5800 3251.36 -2379.07 5800 1988.66 -2366.11 5800 
3253.7 -2366.07 5800 1988.89 -2353.11 5800 3256.03 -2353.07 5800 
1989.12 -2340.11 5800 3258.36 -2340.07 5800 1989.35 -2327.11 5800 
3260.7 -2327.07 5800 1989.57 -2314.11 5800 3263.03 -2314.07 5800 
1989.8 -2301.11 5800 3265.37 -2301.06 5800 1990.03 -2288.11 5800 
3267.7 -2288.06 5800 1990.26 -2275.11 5800 3270.04 -2275.06 5800 
1990.48 -2262.11 5800 3272.37 -2262.06 5800 1990.71 -2249.1 5800 
3274.7 -2249.06 5800 1990.96 -2236.1 5800 3276.94 -2236.6 5800 
3277.03 -2236.06 5800 1991.22 -2223.1 5800 3279.08 -2223.06 5800 
1991.48 -2210.1 5800 3281.09 -2210.06 5800 1991.74 -2197.1 5800 
3283.05 -2197.06 5800 1992.05 -2184.1 5800 3284.96 -2184.05 5800 
1992.38 -2171.1 5800 3286.84 -2171.05 5800 1992.71 -2158.1 5800 
3288.67 -2158.05 5800 1993.03 -2145.1 5800 3290.46 -2145.05 5800 
1993.36 -2132.1 5800 3292.22 -2132.05 5800 1993.69 -2119.09 5800 
3293.94 -2119.05 5800 1994.02 -2106.09 5800 3295.62 -2106.05 5800 
1994.34 -2093.09 5800 3297.27 -2093.05 5800 1994.26 -2080.09 5800 
3298.88 -2080.05 5800 1991.37 -2067.09 5800 3300.46 -2067.05 5800 
1988.29 -2054.09 5800 3302.01 -2054.04 5800 1985.2 -2041.09 5800 
3303.53 -2041.04 5800 1982.11 -2028.09 5800 3305.01 -2028.04 5800 
1979.02 -2015.09 5800 3305.96 -2019.66 5800 3306.39 -2015.04 5800 
1975.94 -2002.09 5800 3307.59 -2002.04 5800 1972.85 -1989.08 5800 
3308.8 -1989.04 5800 1969.76 -1976.08 5800 1971.92 -1985.16 5800 
3309.98 -1976.04 5800 1966.67 -1963.08 5800 3311.05 -1963.04 5800 
1963.58 -1950.08 5800 3311.89 -1950.04 5800 1960.5 -1937.08 5800 
3312.73 -1937.03 5800 1957.41 -1924.08 5800 3313.57 -1924.03 5800 
1954.32 -1911.08 5800 3314.41 -1911.03 5800 1951.23 -1898.08 5800 
3315.26 -1898.03 5800 1948.15 -1885.08 5800 3316.1 -1885.03 5800 
1945.06 -1872.08 5800 3316.94 -1872.03 5800 1941.97 -1859.08 5800 
1942.92 -1863.09 5800 3317.78 -1859.03 5800 1938.88 -1846.08 5800 
3318.62 -1846.03 5800 1935.79 -1833.07 5800 3319.46 -1833.03 5800 
1933.91 -1820.07 5800 3320.3 -1820.03 5800 1933.82 -1807.07 5800 
3321.15 -1807.02 5800 1933.77 -1794.07 5800 3321.99 -1794.02 5800 
1936.46 -1781.07 5800 3322.83 -1781.02 5800 1939.91 -1768.07 5800 
3323.67 -1768.02 5800 1942.93 -1756.67 5800 1943.36 -1755.07 5800 
3324.51 -1755.02 5800 1946.81 -1742.07 5800 3325.35 -1742.02 5800 
1950.26 -1729.07 5800 3326.19 -1729.02 5800 1953.71 -1716.06 5800 
3327.04 -1716.02 5800 1957.16 -1703.06 5800 3327.88 -1703.02 5800 
1960.61 -1690.06 5800 3328.72 -1690.02 5800 1964.06 -1677.06 5800 
3329.56 -1677.01 5800 1967.51 -1664.06 5800 3330.4 -1664.01 5800 
1970.96 -1651.06 5800 3328.27 -1651.01 5800 1971.94 -1647.36 5800 
1974.51 -1638.06 5800 3323.44 -1638.01 5800 1978.09 -1625.06 5800 
3317.34 -1625.01 5800 1981.65 -1612.06 5800 3311.24 -1612.01 5800 
1985.2 -1599.05 5800 3305.99 -1600.82 5800 3305.27 -1599.01 5800 
1988.72 -1586.05 5800 3303.15 -1586.01 5800 1992.23 -1573.05 5800 
3301.92 -1573.01 5800 1995.72 -1560.05 5800 3300.86 -1560.01 5800 
1999.2 -1547.05 5800 3299.94 -1547.01 5800 2000.95 -1539.18 5800 
2002.1 -1534.05 5800 3299.14 -1534 5800 2003.09 -1521.05 5800 
3298.43 -1521 5800 2004.63 -1508.05 5800 3297.79 -1508 5800 
2006.11 -1495.05 5800 3297.23 -1495 5800 2007.53 -1482.04 5800 
3296.71 -1482 5800 2008.97 -1469.04 5800 3296.65 -1469 5800 
2010.48 -1456.04 5800 3297.12 -1456 5800 2011.99 -1443.04 5800 
3297.6 -1443 5800 2013.49 -1430.04 5800 3298.08 -1430 5800 
2015 -1417.04 5800 3298.55 -1417 5800 2016.51 -1404.04 5800 
3299.03 -1403.99 5800 2018.01 -1391.04 5800 3299.51 -1390.99 5800 
2019.52 -1378.04 5800 3299.98 -1377.99 5800 2020.75 -1365.04 5800 
3300.46 -1364.99 5800 2021.69 -1352.03 5800 3300.94 -1351.99 5800 
2022.63 -1339.03 5800 3301.42 -1338.99 5800 2023.57 -1326.03 5800 
3301.89 -1325.99 5800 2024.51 -1313.03 5800 3302.37 -1312.99 5800 
2025.45 -1300.03 5800 3302.85 -1299.99 5800 2026.39 -1287.03 5800 
3303.32 -1286.99 5800 2027.32 -1274.03 5800 3303.8 -1273.98 5800 
2028.26 -1261.03 5800 3304.28 -1260.98 5800 2029.2 -1248.03 5800 
3304.75 -1247.98 5800 2029.97 -1237.33 5800 2030.1 -1235.03 5800 
3305.23 -1234.98 5800 2030.74 -1222.02 5800 3305.71 -1221.98 5800 
2031.28 -1209.02 5800 3306.02 -1214.72 5800 3306.27 -1208.98 5800 
2031.76 -1196.02 5800 3306.88 -1195.98 5800 2032.18 -1183.02 5800 
3307.48 -1182.98 5800 2032.54 -1170.02 5800 3308.08 -1169.98 5800 
2032.7 -1157.02 5800 3308.68 -1156.97 5800 2031.56 -1144.02 5800 
3309.28 -1143.97 5800 2030.42 -1131.02 5800 3309.88 -1130.97 5800 
2028.98 -1118.02 5800 2029.98 -1126.14 5800 3310.48 -1117.97 5800 
2025.98 -1105.02 5800 3311.07 -1104.97 5800 2029.41 -1092.01 5800 
3311.66 -1091.97 5800 2029.99 -1089.55 5800 2031.79 -1079.01 5800 
3312.26 -1078.97 5800 2033.76 -1066.01 5800 3312.85 -1065.97 5800 
2035.84 -1053.01 5800 3313.45 -1052.97 5800 2037.92 -1040.01 5800 
3314.04 -1039.97 5800 2040 -1027.01 5800 2580.07 -1026.99 5800 
2581.01 -1027.31 5800 2589.21 -1026.99 5800 3314.61 -1026.96 5800 
2042.08 -1014.01 5800 2543.95 -1013.99 5800 2552.01 -1019.32 5800 
2610.01 -1026.17 5800 2639.01 -1025.04 5800 2668.01 -1023.9 5800 
2697.01 -1022.76 5800 2726.02 -1021.62 5800 2755.02 -1020.64 5800 
2760.57 -1013.98 5800 3314.25 -1013.96 5800 2044.16 -1001.01 5800 
2526.43 -1000.99 5800 2769.85 -1000.98 5800 3313.97 -1000.96 5800 
2046.24 -988.005 5800 2508.93 -987.99 5800 2523.01 -997.811 5800 
2777.09 -987.98 5800 3312.84 -987.962 5800 2048.33 -975.004 5800 
2490.1 -974.989 5800 2494.01 -977.619 5800 2783.32 -974.979 5800 
3310.21 -974.961 5800 2050.29 -962.003 5800 2469.95 -961.989 5800 
2784.02 -973.546 5800 2790.26 -961.978 5800 3307.6 -961.96 5800 
2052.3 -949.002 5800 2449.79 -948.989 5800 2465.01 -958.804 5800 
2797.37 -948.977 5800 3306.04 -954.147 5800 3305.04 -948.959 5800 
2054.37 -936.001 5800 2429.64 -935.988 5800 2436.01 -940.098 5800 
2804.15 -935.975 5800 3302.53 -935.958 5800 2056.51 -923 5800 
2409.49 -922.988 5800 2810.6 -922.974 5800 3300.03 -922.957 5800 
2058.71 -909.999 5800 2400.13 -909.987 5800 2407.01 -921.39 5800 
[...]
POINT_DATA 6529
SCALARS Pressure double
LOOKUP_TABLE default
3.0932710339 3.0932710339 3.0932710339 3.0932710339 3.0932710339 3.0932710339 3.0932710339 3.0932710339 3.0932710339 
3.0932710339 3.0932710339 3.0932710339 3.0932710339 3.0932710339 3.0932710339 3.0932710339 3.0932710339 3.0932710339 
3.0932710339 3.0932710339 3.0932710339 3.0932710339 3.0932710339 3.0932710339 3.0932710339 3.0932710339 3.0932710339 
3.0932710339 3.0932710339 3.0932710339 3.0932710339 3.0932710339 3.0932710339 3.0932710339 3.0932710339 3.0932710339 
3.0932710339 3.0932710339 3.0932710339 3.0932710339 3.0932710339 3.0932710339 3.0932710339 3.0932710339 3.0932710339 
3.0932710339 3.0932710339 3.0932710339 3.0932710339 3.0932710339 3.0932710339 3.0932710339 3.0932710339 3.0932710339 
3.0932710339 3.0932710339 3.0932710339 3.0932710339 3.0932710339 3.0932710339 3.0932710339 3.0932710339 3.0932710339 
3.0932710339 3.0932710339 3.0932710339 3.0932710339 3.0932710339 3.0932710339 3.0932710339 3.0932710339 3.0932710339 
3.0932710339 3.0932710339 3.0932710339 3.0932710339 3.0932710339 3.0932710339 3.0932710339 3.0932710339 3.0932710339 
3.0932710339 3.0932710339 3.0932710339 3.0932710339 3.0932710339 3.0932710339 3.0932710339 3.0932710339 3.0932710339 
3.0932710339 3.0932710339 3.0932710339 3.0932710339 3.0932710339 3.0932710339 3.0932710339 3.0932710339 3.0932710339 
3.0932710339 3.0932710339 3.0932710339 3.0932710339 3.0932710339 3.0932710339 3.0932710339 3.0932710339 3.0932710339 
3.0932710339 3.0932710339 3.0932710339 3.0932710339 3.0932710339 3.0932710339 3.0932710339 3.0932710339 3.0932710339 
3.0932710339 3.0932710339 3.0932710339 3.0932710339 3.0932710339 3.0932710339 3.0932710339 3.0932710339 3.0932710339 
3.0932710339 3.0932710339 3.0932710339 3.0932710339 3.0932710339 3.0932710339 3.0932710339 3.0932710339 3.0932710339 
3.0932710339 3.0932710339 3.0932710339 3.0932710339 3.0932710339 3.0932710339 3.0932710339 3.0932710339 3.0932710339 
3.0932710339 3.0932710339 3.0932710339 3.0932710339 3.0932710339 3.0932710339 3.0932710339 3.0932710339 3.0932710339 
3.0932710339 3.0932710339 3.0932710339 3.0932710339 3.0932710339 3.0932710339 3.0932710339 3.0932710339 3.0932710339 
3.0932710339 3.0932710339 3.0932710339 3.0932710339 3.0932710339 3.0932710339 3.0932710339 3.0932710339 3.0932710339 
3.0932710339 3.0932710339 3.0932710339 3.0932710339 3.0932710339 3.0932710339 3.0932710339 3.0932710339 3.0932710339 
3.0932710339 3.0932710339 3.0932710339 3.0932710339 3.0932710339 3.0932710339 3.0932710339 3.0932710339 3.0932710339 
3.0932710339 3.0932710339 3.0932710339 3.0932710339 3.0932710339 3.0932710339 3.0932710339 3.0932710339 3.0932710339 
3.0932710339 3.0932710339 3.0932710339 3.0932710339 3.0932710339 3.0932710339 3.0932710339 3.0932710339 3.0932710339 
3.0932710339 3.0932710339 3.0932710339 3.0932710339 3.0932710339 3.0932710339 3.0932710339 3.0932710339 3.0932710339 
3.0932710339 3.0932710339 3.0932710339 3.0932710339 3.0932710339 3.0932710339 3.0932710339 3.0932710339 3.0932710339 
3.0932710339 3.0932710339 3.0932710339 3.0932710339 3.0932710339 3.0932710339 3.0932710339 3.0932710339 3.0932710339 
3.0932710339 3.0932710339 3.0932710339 3.0932710339 3.0932710339 3.0932710339 3.0932710339 3.0932710339 3.0932710339 
3.0932710339 3.0932710339 3.0932710339 3.0932710339 3.0932710339 3.0932710339 3.0932710339 3.0932710339 3.0932710339 
3.0932710339 3.0932710339 3.0932710339 3.0932710339 3.0932710339 3.0932710339 3.0932710339 3.0932710339 3.0932710339 
3.0932710339 3.0932710339 3.0932710339 3.0932710339 3.0932710339 3.0932710339 3.0932710339 3.0932710339 3.0932710339 
3.0932710339 3.0932710339 3.0932710339 3.0932710339 3.0932710339 3.0932710339 3.0932710339 3.0932710339 3.0932710339 
3.0932710339 3.0932710339 3.0932710339 3.0932710339 3.0932710339 3.0932710339 3.0932710339 3.0932710339 3.0932710339 
3.0932710339 3.0932710339 3.0932710339 3.0932710339 3.0932710339 3.0932710339 3.0932710339 3.0932710339 3.0932710339 
3.0932710339 3.0932710339 3.0932710339 3.0932710339 3.0932710339 3.0932710339 3.0932710339 3.0932710339 3.0932710339 
3.0932710339 3.0932710339 3.0932710339 3.0932710339 3.0932710339 3.0932710339 3.0932710339 3.0932710339 3.0932710339 
3.0932710339 3.0932710339 3.0932710339 3.0932710339 3.0932710339 3.0932710339 3.0932710339 3.0932710339 3.0932710339 
3.0932710339 3.0932710339 3.0932710339 3.0932710339 3.0932710339 3.0932710339 3.0932710339 3.0932710339 3.0932710339 
3.0932710339 3.0932710339 3.0932710339 3.0932710339 3.0932710339 3.0932710339 3.0932710339 3.0932710339 3.0932710339 
3.0932710339 3.0932710339 3.0932710339 3.0932710339 3.0932710339 3.0932710339 3.0932710339 3.0932710339 3.0932710339 
3.0932710339 3.0932710339 3.0932710339 3.0932710339 3.0932710339 3.0932710339 3.0932710339 3.0932710339 3.0932710339 
3.0932710339 3.0932710339 3.0932710339 3.0932710339 3.0932710339 3.0932710339 3.0932710339 3.0932710339 3.0932710339 
3.0932710339 3.0932710339 3.0932710339 3.0932710339 3.0932710339 3.0932710339 3.0932710339 3.0932710339 3.0932710339 
3.0932710339 3.0932710339 3.0932710339 3.0932710339 3.0932710339 3.0932710339 3.0932710339 3.0932710339 3.0932710339 
3.0932710339 3.0932710339 3.0932710339 3.0932710339 3.0932710339 3.0932710339 3.0932710339 3.0932710339 3.1078652246 
3.1078652246 3.1078652246 3.0932710339 3.0932710339 3.1078652246 3.1078652246 3.1078652246 3.1078652246 3.1078652246 
3.1078652246 3.1078652246 3.1078652246 3.1078652246 3.0932710339 3.0932710339 3.1078652246 3.1078652246 3.0932710339 
3.0932710339 3.1078652246 3.1078652246 3.1078652246 3.0932710339 3.0932710339 3.1078652246 3.1078652246 3.1078652246 
3.0932710339 3.0932710339 3.1078652246 3.1078652246 3.1078652246 3.0932710339 3.0932710339 3.1078652246 3.1078652246 
3.1078652246 3.0932710339 3.0932710339 3.0932710339 3.1078652246 3.1078652246 3.1078652246 3.0932710339 3.0932710339 
3.1078652246 3.1078652246 3.0932710339 3.0932710339 3.1078652246 3.1078652246 3.1078652246 3.1078652246 3.0932710339 
3.0932710339 3.0932710339 3.1078652246 3.1078652246 3.0932710339 3.0932710339 3.1078652246 3.1078652246 3.0932710339 
3.0932710339 3.1078652246 3.1078652246 3.0932710339 3.0932710339 3.1078652246 3.1078652246 3.1078652246 3.1078652246 
3.0932710339 3.0932710339 3.1078652246 3.1078652246 3.0932710339 3.0932710339 3.1078652246 3.1078652246 3.0932710339 
3.0932710339 3.1078652246 3.1078652246 3.1078652246 3.0932710339 3.0932710339 3.1078652246 3.1078652246 3.1078652246 
3.0932710339 3.0932710339 3.0932710339 3.1078652246 3.1078652246 3.0932710339 3.0932710339 3.1078652246 3.1078652246 
3.1078652246 3.0932710339 3.0932710339 3.1078652246 3.1078652246 3.1078652246 3.0932710339 3.0932710339 3.1078652246 
3.1078652246 3.0932710339 3.0932710339 3.1078652246 3.1078652246 3.0932710339 3.0932710339 3.1078652246 3.1078652246 
3.0932710339 3.0932710339 3.1078652246 3.1078652246 3.0932710339 3.0932710339 3.1078652246 3.1078652246 3.1078652246 
3.0932710339 3.0932710339 3.1078652246 3.1078652246 3.0932710339 3.0932710339 3.0932710339 3.1078652246 3.1224594153 
3.1224594153 3.1224594153 3.1078652246 3.0932710339 3.0932710339 3.1078652246 3.1224594153 3.1224594153 3.1224594153 
3.1224594153 3.1078652246 3.0932710339 3.0932710339 3.1078652246 3.1078652246 3.1224594153 3.1224594153 3.1224594153 
3.1078652246 3.1078652246 3.0932710339 3.0932710339 3.1078652246 3.1224594153 3.1224594153 3.1224594153 3.1224594153 
3.1078652246 3.0932710339 3.0932710339 3.1078652246 3.1224594153 3.1224594153 3.1224594153 3.1224594153 3.1078652246 
3.0932710339 3.0932710339 3.1078652246 3.1224594153 3.1224594153 3.1078652246 3.0932710339 3.0932710339 3.1078652246 
3.1224594153 3.1224594153 3.1224594153 3.1224594153 3.1078652246 3.0932710339 3.0932710339 3.1078652246 3.1224594153 
3.1224594153 3.1078652246 3.0932710339 3.0932710339 3.1078652246 3.1224594153 3.1224594153 3.1224594153 3.1078652246 
3.1078652246 3.0932710339 3.0932710339 3.1078652246 3.1078652246 3.1224594153 3.1224594153 3.1224594153 3.1078652246 
3.0932710339 3.0932710339 3.1078652246 3.1224594153 3.1224594153 3.1224594153 3.1078652246 3.0932710339 3.0932710339 
3.1078652246 3.1224594153 3.1224594153 3.1078652246 3.0932710339 3.0932710339 3.1078652246 3.1224594153 3.1224594153 
3.1224594153 3.1078652246 3.1078652246 3.0932710339 3.0786768432 3.0786768432 3.0786768432 3.0786768432 3.0932710339 
3.1078652246 3.1224594153 3.1224594153 3.1078652246 3.0932710339 3.0786768432 3.0786768432 3.0786768432 3.0786768432 
3.0786768432 3.0786768432 3.0786768432 3.0786768432 3.0786768432 3.0786768432 3.0786768432 3.0786768432 3.0786768432 
3.0932710339 3.1078652246 3.1224594153 3.1224594153 3.1224594153 3.1078652246 3.0932710339 3.0786768432 3.0786768432 
3.0786768432 3.0786768432 3.0786768432 3.0786768432 3.0786768432 3.0932710339 3.0932710339 3.1078652246 3.1224594153 
3.1224594153 3.1078652246 3.0932710339 3.0786768432 3.0786768432 3.0786768432 3.0786768432 3.0786768432 3.0786768432 
3.0786768432 3.0932710339 3.1078652246 3.1224594153 3.1224594153 3.137053606 3.137053606 3.137053606 3.137053606 
3.1224594153 3.1078652246 3.0932710339 3.0786768432 3.0786768432 3.0786768432 3.0786768432 3.0786768432 3.0932710339 
3.1078652246 3.1224594153 3.137053606 3.137053606 3.137053606 3.137053606 3.1224594153 3.1224594153 3.1078652246 
3.0932710339 3.0786768432 3.0786768432 3.0786768432 3.0786768432 3.0786768432 3.0786768432 3.0786768432 3.0932710339 
3.1078652246 3.1078652246 3.1224594153 3.137053606 3.137053606 3.137053606 3.1224594153 3.1078652246 3.1078652246 
3.0932710339 3.0786768432 3.0786768432 3.0786768432 3.0786768432 3.0786768432 3.0932710339 3.1078652246 3.1224594153 
3.137053606 3.137053606 3.137053606 3.137053606 3.1224594153 3.1078652246 3.0932710339 3.0786768432 3.0786768432 
3.0786768432 3.0786768432 3.0786768432 3.0786768432 3.0932710339 3.1078652246 3.1224594153 3.137053606 3.137053606 
3.1224594153 3.1078652246 3.0932710339 3.0786768432 3.0786768432 3.0786768432 3.0786768432 3.0786768432 3.0786768432 
3.0932710339 3.1078652246 3.1224594153 3.1224594153 3.137053606 3.137053606 3.137053606 3.1224594153 3.1224594153 
3.1078652246 3.0932710339 3.0786768432 3.0786768432 3.0786768432 3.0786768432 3.0786768432 3.0932710339 3.1078652246 
3.1224594153 3.137053606 3.137053606 3.137053606 3.1224594153 3.1078652246 3.0932710339 3.0932710339 3.0786768432 
3.0786768432 3.0786768432 3.0786768432 3.0786768432 3.0786768432 3.0932710339 3.1078652246 3.1224594153 3.137053606 
3.137053606 3.137053606 3.1224594153 3.1078652246 3.0932710339 3.0786768432 3.0786768432 3.0786768432 3.0786768432 
3.0786768432 3.0932710339 3.1078652246 3.1224594153 3.137053606 3.137053606 3.1224594153 3.1224594153 3.1078652246 
3.0932710339 3.0786768432 3.0786768432 3.0786768432 3.0786768432 3.0786768432 3.0786768432 3.0932710339 3.1078652246 
3.1224594153 3.137053606 3.137053606 3.1224594153 3.1078652246 3.1078652246 3.0932710339 3.0786768432 3.0786768432 
3.0786768432 3.0786768432 3.0786768432 3.0932710339 3.1078652246 3.1224594153 3.137053606 3.137053606 3.137053606 
3.137053606 3.1224594153 3.1078652246 3.0932710339 3.0786768432 3.0786768432 3.0786768432 3.0786768432 3.0932710339 
3.1078652246 3.1224594153 3.1224594153 3.137053606 3.1516477967 3.1516477967 3.1516477967 3.137053606 3.1224594153 
3.1078652246 3.0932710339 3.0786768432 3.0786768432 3.0786768432 3.0786768432 3.0786768432 3.0786768432 3.0932710339 
3.1078652246 3.1224594153 3.137053606 3.1516477967 3.1516477967 3.1516477967 3.1516477967 3.1516477967 3.137053606 
3.1224594153 3.1078652246 3.0932710339 3.0786768432 3.0786768432 3.0786768432 3.0786768432 3.0786768432 3.0932710339 
3.1078652246 3.1224594153 3.137053606 3.1516477967 3.1516477967 3.1516477967 3.137053606 3.1224594153 3.1078652246 
3.0932710339 3.0786768432 3.0786768432 3.0786768432 3.0786768432 3.0786768432 3.0932710339 3.1078652246 3.1224594153 
3.137053606 3.137053606 3.1516477967 3.1516477967 3.1516477967 3.137053606 3.137053606 3.1224594153 3.1078652246 
3.0932710339 3.0786768432 3.0786768432 3.0786768432 3.0786768432 3.0786768432 3.0786768432 3.0932710339 3.1078652246 
3.1224594153 3.137053606 3.1516477967 3.1516477967 3.1516477967 3.137053606 3.1224594153 3.1224594153 3.1078652246 
3.0932710339 3.0786768432 3.0786768432 3.0786768432 3.0786768432 3.0932710339 3.0932710339 3.1078652246 3.1078652246 
3.1224594153 3.1224594153 3.137053606 3.1516477967 3.1516477967 3.1516477967 3.137053606 3.1224594153 3.1078652246 
3.0932710339 3.0786768432 3.0786768432 3.0786768432 3.0786768432 3.0786768432 3.0932710339 3.1078652246 3.1224594153 
3.137053606 3.137053606 3.1516477967 3.1516477967 3.1516477967 3.137053606 3.1224594153 3.1078652246 3.0932710339 
3.0786768432 3.0786768432 3.0786768432 3.0786768432 3.0932710339 3.1078652246 3.1224594153 3.137053606 3.1516477967 
3.1516477967 3.137053606 3.1224594153 3.1078652246 3.0932710339 3.0932710339 3.0786768432 3.0786768432 3.0786768432 
3.0640826525 3.0640826525 3.0640826525 3.0640826525 3.0640826525 3.0640826525 3.0640826525 3.0640826525 3.0640826525 
3.0786768432 3.0932710339 3.1078652246 3.1224594153 3.137053606 3.1516477967 3.1516477967 3.1516477967 3.137053606 
3.1224594153 3.1078652246 3.0932710339 3.0786768432 3.0786768432 3.0786768432 3.0786768432 3.0786768432 3.0640826525 
3.0640826525 3.0786768432 3.0932710339 3.1078652246 3.1224594153 3.137053606 3.137053606 3.1516477967 3.1516477967 
3.137053606 3.137053606 3.1224594153 3.1078652246 3.0932710339 3.0786768432 3.0786768432 3.0786768432 3.0640826525 
3.0640826525 3.0640826525 3.0640826525 3.0786768432 3.0932710339 3.1078652246 3.1224594153 3.1224594153 3.137053606 
3.1516477967 3.1516477967 3.1662419875 3.1662419875 3.1662419875 3.1662419875 3.1516477967 3.137053606 3.1224594153 
3.1078652246 3.0932710339 3.0786768432 3.0786768432 3.0786768432 3.0640826525 3.0640826525 3.0786768432 3.0932710339 
3.1078652246 3.1224594153 3.137053606 3.1516477967 3.1662419875 3.1662419875 3.1662419875 3.1662419875 3.1516477967 
3.137053606 3.1224594153 3.1078652246 3.0932710339 3.0786768432 3.0786768432 3.0786768432 3.0640826525 3.0640826525 
3.0640826525 3.0786768432 3.0932710339 3.1078652246 3.1224594153 3.137053606 3.1516477967 3.1662419875 3.1662419875 
3.1662419875 3.1662419875 3.1516477967 3.137053606 3.1224594153 3.1078652246 3.0932710339 3.0786768432 3.0786768432 
3.0786768432 3.0786768432 3.0640826525 3.0640826525 3.0786768432 3.0932710339 3.1078652246 3.1224594153 3.137053606 
3.137053606 3.1516477967 3.1516477967 3.1662419875 3.1662419875 3.1662419875 3.1516477967 3.137053606 3.1224594153 
3.1078652246 3.0932710339 3.0786768432 3.0786768432 3.0786768432 3.0786768432 3.0640826525 3.0640826525 3.0786768432 
3.0786768432 3.0932710339 3.1078652246 3.1224594153 3.137053606 3.1516477967 3.1662419875 3.1662419875 3.1516477967 
3.137053606 3.1224594153 3.1078652246 3.0932710339 3.0786768432 3.0786768432 3.0786768432 3.0786768432 3.0786768432 
3.0786768432 3.0640826525 3.0640826525 3.0494884618 3.0494884618 3.0494884618 3.0494884618 3.0494884618 3.0494884618 
3.0640826525 3.0640826525 3.0786768432 3.0932710339 3.1078652246 3.1224594153 3.137053606 3.1516477967 3.1516477967 
3.1662419875 3.1662419875 3.1662419875 3.1516477967 3.137053606 3.1224594153 3.1078652246 3.0932710339 3.0786768432 
3.0786768432 3.0786768432 3.0786768432 3.0786768432 3.0786768432 3.0786768432 3.0786768432 3.0640826525 3.0494884618 
3.0494884618 3.0494884618 3.0640826525 3.0786768432 3.0932710339 3.1078652246 3.1078652246 3.1224594153 3.1224594153 
3.137053606 3.1516477967 3.1662419875 3.1662419875 3.1516477967 3.137053606 3.1224594153 3.1078652246 3.0932710339 
3.0786768432 3.0640826525 3.0640826525 3.0640826525 3.0786768432 3.0786768432 3.0786768432 3.0640826525 3.0494884618 
3.0494884618 3.0494884618 3.0640826525 3.0786768432 3.0932710339 3.0932710339 3.1078652246 3.1224594153 3.137053606 
3.137053606 3.1516477967 3.1662419875 3.1662419875 3.1662419875 3.1516477967 3.137053606 3.1224594153 3.1078652246 
3.0932710339 3.0786768432 3.0640826525 3.0640826525 3.0640826525 3.0640826525 3.0786768432 3.0786768432 3.0640826525 
3.0494884618 3.0494884618 3.0640826525 3.0786768432 3.0932710339 3.1078652246 3.1224594153 3.137053606 3.1516477967 
3.1516477967 3.1662419875 3.1662419875 3.1516477967 3.137053606 3.137053606 3.1224594153 3.1078652246 3.0932710339 
3.0786768432 3.0640826525 3.0640826525 3.0640826525 3.0640826525 3.0786768432 3.0786768432 3.0786768432 3.0640826525 
3.0494884618 3.0348942711 3.0348942711 3.0348942711 3.0348942711 3.0348942711 3.0494884618 3.0494884618 3.0640826525 
3.0786768432 3.0932710339 3.1078652246 3.1224594153 3.137053606 3.1516477967 2.9619233175 2.9619233175 2.9765175082 
2.9765175082 2.991111699 2.991111699 3.0057058897 3.0057058897 3.0203000804 3.0203000804 3.0348942711 3.0348942711 
3.0494884618 3.0494884618 3.0640826525 3.0640826525 3.0786768432 3.0786768432 3.0932710339 3.0932710339 3.1078652246 
3.1078652246 3.1224594153 3.1224594153 3.137053606 3.137053606 3.1516477967 3.1516477967 2.9619233175 2.9765175082 
2.991111699 3.0057058897 3.0203000804 3.0348942711 3.0494884618 3.0640826525 3.0786768432 3.0932710339 3.1078652246 
3.1224594153 3.137053606 3.1516477967 3.1662419875 2.9619233175 2.9765175082 2.991111699 3.0057058897 3.0203000804 
3.0348942711 3.0494884618 3.0640826525 3.0786768432 3.0932710339 3.1078652246 3.1224594153 3.137053606 3.1516477967 
3.1662419875 2.9619233175 2.9765175082 2.991111699 3.0057058897 3.0203000804 3.0348942711 3.0494884618 3.0640826525 
3.0786768432 3.0932710339 3.1078652246 3.1224594153 3.137053606 3.1516477967 3.1662419875 2.9619233175 2.9765175082 
2.991111699 3.0057058897 3.0203000804 3.0348942711 3.0494884618 3.0640826525 3.0786768432 3.0932710339 3.1078652246 
3.1224594153 3.137053606 3.1516477967 3.1662419875 2.9619233175 2.9765175082 2.991111699 3.0057058897 3.0203000804 
3.0348942711 3.0494884618 3.0640826525 3.0786768432 3.0932710339 3.1078652246 3.1224594153 3.137053606 3.1516477967 
3.1662419875 2.9619233175 2.9765175082 2.991111699 3.0057058897 3.0203000804 3.0348942711 3.0494884618 3.0640826525 
3.0786768432 3.0932710339 3.1078652246 3.1224594153 3.137053606 3.1516477967 3.1662419875 2.9619233175 2.9765175082 
2.991111699 3.0057058897 3.0203000804 3.0348942711 3.0494884618 3.0640826525 3.0786768432 3.0932710339 3.1078652246 
3.1224594153 3.137053606 3.1516477967 3.1662419875 2.9619233175 2.9765175082 2.991111699 3.0057058897 3.0203000804 
3.0348942711 3.0494884618 3.0640826525 3.0786768432 3.0932710339 3.1078652246 3.1224594153 3.137053606 3.1516477967 
3.1662419875 2.9619233175 2.9765175082 2.991111699 3.0057058897 3.0203000804 3.0348942711 3.0494884618 3.0640826525 
3.0786768432 3.0932710339 3.1078652246 3.1224594153 3.137053606 3.1516477967 3.1662419875 2.9619233175 2.9765175082 
2.991111699 3.0057058897 3.0203000804 3.0348942711 3.0494884618 3.0640826525 3.0786768432 3.0932710339 3.1078652246 
3.1224594153 3.137053606 3.1516477967 2.9619233175 2.9765175082 2.991111699 3.0057058897 3.0203000804 3.0348942711 
3.0494884618 3.0640826525 3.0786768432 3.0932710339 3.1078652246 3.1224594153 3.137053606 3.1516477967 2.9619233175 
2.9765175082 2.991111699 3.0057058897 3.0203000804 3.0348942711 3.0494884618 3.0640826525 3.0786768432 3.0932710339 
3.1078652246 3.1224594153 3.137053606 2.9619233175 2.9765175082 2.991111699 3.0057058897 3.0203000804 3.0348942711 
3.0494884618 3.0640826525 3.0786768432 3.0932710339 3.1078652246 3.1224594153 3.137053606 2.9619233175 2.9765175082 
2.991111699 3.0057058897 3.0203000804 3.0348942711 3.0494884618 3.0640826525 3.0786768432 3.0932710339 3.1078652246 
3.1224594153 3.137053606 3.137053606 3.1224594153 3.1078652246 3.0932710339 3.0932710339 3.0786768432 3.0786768432 
3.0640826525 3.0640826525 3.0640826525 3.0786768432 3.0786768432 3.0786768432 3.0786768432 3.0640826525 3.0494884618 
3.0348942711 3.0348942711 3.0494884618 3.0640826525 3.0786768432 3.0932710339 3.1078652246 3.1224594153 2.9619233175 