# vtk DataFile Version 4.2
vtk output
ASCII
DATASET POLYDATA
POINTS 7121 float
1540.67 -3383.16 0 1553.84 -3395.96 0 1580.35 -3383.16 0 
1526.98 -3366.16 0 1590.84 -3378.09 0 1615.54 -3366.15 0 
1516.28 -3349.16 0 1516.84 -3350.13 0 1627.85 -3360.21 0 
1650.73 -3349.15 0 1506.35 -3332.16 0 1664.85 -3342.33 0 
1685.92 -3332.15 0 1496.43 -3315.15 0 1701.85 -3324.46 0 
1721.12 -3315.15 0 1486.51 -3298.15 0 1738.85 -3306.58 0 
1756.31 -3298.15 0 1476.59 -3281.15 0 1479.85 -3286.74 0 
1775.85 -3288.7 0 1791.5 -3281.14 0 1466.66 -3264.15 0 
1812.86 -3270.83 0 1826.69 -3264.14 0 1456.74 -3247.15 0 
1849.86 -3252.95 0 1861.88 -3247.14 0 1446.82 -3230.15 0 
1886.86 -3235.07 0 1897.07 -3230.14 0 1436.9 -3213.15 0 
1442.85 -3223.35 0 1923.86 -3217.19 0 1932.26 -3213.14 0 
1426.98 -3196.15 0 1960.86 -3199.32 0 1967.45 -3196.13 0 
1417.05 -3179.15 0 1997.87 -3181.44 0 2002.64 -3179.13 0 
1407.13 -3162.15 0 2034.87 -3163.56 0 2037.84 -3162.13 0 
1397.21 -3145.15 0 1405.85 -3159.95 0 2071.87 -3145.69 0 
2073.03 -3145.13 0 1387.29 -3128.15 0 2108.22 -3128.13 0 
1377.37 -3111.15 0 2108.87 -3127.81 0 2143.41 -3111.13 0 
1367.44 -3094.15 0 1368.85 -3096.56 0 2145.88 -3110.14 0 
2182.88 -3100.65 0 2219.88 -3095.95 0 2234.23 -3094.12 0 
1357.52 -3077.14 0 2256.88 -3091.24 0 2293.88 -3086.54 0 
2330.88 -3080.11 0 2332.57 -3077.12 0 1347.6 -3060.14 0 
2336.32 -3060.12 0 1337.68 -3043.14 0 2340.08 -3043.12 0 
1327.76 -3026.14 0 1331.86 -3033.17 0 2343.83 -3026.11 0 
1317.83 -3009.14 0 2347.58 -3009.11 0 1307.91 -2992.14 0 
2351.33 -2992.11 0 1297.99 -2975.14 0 2355.08 -2975.11 0 
1288.07 -2958.14 0 1294.86 -2969.78 0 2358.83 -2958.11 0 
1278.15 -2941.14 0 2362.58 -2941.11 0 1268.22 -2924.14 0 
2366.33 -2924.11 0 1237.95 -2907.14 0 1257.86 -2918.22 0 
2367.89 -2917.05 0 2370.09 -2907.11 0 1195.43 -2890.14 0 
1220.86 -2900.31 0 2373.84 -2890.11 0 1152.91 -2873.14 0 
1183.86 -2885.51 0 2377.59 -2873.1 0 1110.39 -2856.14 0 
1146.86 -2870.72 0 2381.34 -2856.1 0 1067.86 -2839.14 0 
1072.86 -2841.14 0 1109.86 -2855.93 0 2385.09 -2839.1 0 
1027.61 -2822.14 0 1035.86 -2826.34 0 2388.84 -2822.1 0 
1000.04 -2805.14 0 2392.59 -2805.1 0 978.78 -2788.14 0 
998.862 -2804.29 0 2396.34 -2788.1 0 960.169 -2771.14 0 
961.863 -2774.53 0 2400.1 -2771.1 0 951.826 -2754.14 0 
2403.85 -2754.1 0 943.696 -2737.14 0 2404.9 -2749.31 0 
2407.6 -2737.1 0 935.771 -2720.13 0 2411.35 -2720.09 0 
928.044 -2703.13 0 2415.1 -2703.09 0 921.166 -2686.13 0 
924.866 -2696.02 0 2418.85 -2686.09 0 914.803 -2669.13 0 
2422.6 -2669.09 0 908.44 -2652.13 0 2426.35 -2652.09 0 
902.077 -2635.13 0 2430.11 -2635.09 0 895.714 -2618.13 0 
2433.86 -2618.09 0 889.35 -2601.13 0 2437.61 -2601.09 0 
882.987 -2584.13 0 887.871 -2597.18 0 2441.36 -2584.09 0 
876.624 -2567.13 0 2441.91 -2581.57 0 2445.11 -2567.08 0 
870.261 -2550.13 0 2448.86 -2550.08 0 863.898 -2533.13 0 
2452.61 -2533.08 0 857.535 -2516.12 0 2456.36 -2516.08 0 
851.172 -2499.12 0 2460.12 -2499.08 0 844.808 -2482.12 0 
850.876 -2498.33 0 2463.87 -2482.08 0 838.445 -2465.12 0 
2467.62 -2465.08 0 832.082 -2448.12 0 2471.37 -2448.08 0 
825.719 -2431.12 0 2475.12 -2431.08 0 819.356 -2414.12 0 
2478.87 -2414.07 0 812.993 -2397.12 0 813.881 -2399.49 0 
2478.93 -2413.83 0 2482.62 -2397.07 0 806.629 -2380.12 0 
2486.37 -2380.07 0 800.266 -2363.12 0 2490.13 -2363.07 0 
793.903 -2346.12 0 2493.88 -2346.07 0 787.54 -2329.12 0 
2497.63 -2329.07 0 781.177 -2312.11 0 2501.38 -2312.07 0 
774.814 -2295.11 0 776.886 -2300.65 0 2505.13 -2295.07 0 
768.451 -2278.11 0 2508.88 -2278.07 0 762.087 -2261.11 0 
2512.63 -2261.06 0 755.724 -2244.11 0 2515.94 -2246.1 0 
2516.38 -2244.06 0 749.361 -2227.11 0 2520.14 -2227.06 0 
742.998 -2210.11 0 2523.89 -2210.06 0 736.635 -2193.11 0 
739.891 -2201.81 0 2535.58 -2193.06 0 730.328 -2176.11 0 
2548.2 -2176.06 0 725.515 -2159.11 0 2552.94 -2169.67 0 
2559.31 -2159.06 0 723.289 -2142.11 0 2565.49 -2142.06 0 
721.09 -2125.11 0 2569.25 -2125.06 0 718.892 -2108.1 0 
2568.66 -2108.05 0 716.694 -2091.1 0 2567.66 -2091.05 0 
714.496 -2074.1 0 2566.66 -2074.05 0 712.298 -2057.1 0 
2565.67 -2057.05 0 710.099 -2040.1 0 2564.67 -2040.05 0 
707.901 -2023.1 0 2563.67 -2023.05 0 705.703 -2006.1 0 
2562.67 -2006.05 0 703.505 -1989.1 0 2561.67 -1989.05 0 
701.307 -1972.1 0 702.902 -1984.44 0 2560.68 -1972.05 0 
699.108 -1955.1 0 2559.68 -1955.05 0 696.91 -1938.1 0 
2558.68 -1938.04 0 694.712 -1921.09 0 2557.68 -1921.04 0 
692.514 -1904.09 0 2556.68 -1904.04 0 690.316 -1887.09 0 
2555.68 -1887.04 0 688.117 -1870.09 0 2554.69 -1870.04 0 
685.919 -1853.09 0 2553.69 -1853.04 0 683.721 -1836.09 0 
2552.96 -1840.65 0 2552.69 -1836.04 0 681.523 -1819.09 0 
2551.69 -1819.04 0 679.325 -1802.09 0 2550.69 -1802.04 0 
677.126 -1785.09 0 2549.7 -1785.04 0 674.91 -1768.09 0 
2548.7 -1768.04 0 673.567 -1751.08 0 2547.7 -1751.03 0 
672.297 -1734.08 0 2546.7 -1734.03 0 671.096 -1717.08 0 
2545.7 -1717.03 0 669.493 -1700.08 0 2544.71 -1700.03 0 
667.972 -1683.08 0 2543.71 -1683.03 0 666.794 -1666.08 0 
2542.71 -1666.03 0 665.929 -1649.08 0 2541.71 -1649.03 0 
662.693 -1632.08 0 665.921 -1649.01 0 2540.71 -1632.03 0 
657.754 -1615.08 0 2539.71 -1615.03 0 -481.108 -1609.67 0 
-504.146 -1598.11 0 -444.107 -1611.44 0 -407.105 -1600.43 0 
-399.273 -1598.1 0 653.834 -1598.08 0 2538.72 -1598.03 0 
-518.108 -1591.1 0 -538.01 -1581.11 0 -370.103 -1589.43 0 
-342.101 -1581.1 0 650.649 -1581.08 0 2537.72 -1581.02 0 
-555.107 -1572.52 0 -571.873 -1564.11 0 -333.102 -1578.43 0 
-296.1 -1567.42 0 -284.929 -1564.1 0 648.009 -1564.07 0 
2537.38 -1564.02 0 -592.107 -1553.95 0 -605.736 -1547.11 0 
-259.099 -1556.42 0 -227.757 -1547.1 0 645.785 -1547.07 0 
1305.46 -1547.06 0 1331.94 -1555.57 0 1368.95 -1555.99 0 
1405.95 -1556.41 0 1442.95 -1556.83 0 1479.95 -1557.25 0 
1516.95 -1557.67 0 1553.95 -1558.1 0 1590.95 -1558.52 0 
1613.54 -1547.05 0 2538.45 -1547.02 0 -629.107 -1535.37 0 
-639.599 -1530.11 0 -222.097 -1545.41 0 -185.095 -1534.41 0 
-170.585 -1530.09 0 642.364 -1530.07 0 1270.89 -1530.06 0 
1294.94 -1543.01 0 1627.95 -1536.56 0 1635.5 -1530.05 0 
2539.68 -1530.02 0 -666.107 -1516.8 0 -673.463 -1513.11 0 
-148.094 -1523.41 0 -113.413 -1513.09 0 638.761 -1513.07 0 
1249.46 -1513.06 0 1257.94 -1523.08 0 1655.2 -1513.04 0 
2540.91 -1513.02 0 -703.107 -1498.22 0 -707.326 -1496.11 0 
-111.092 -1512.4 0 -74.0903 -1500.99 0 -69.1017 -1496.09 0 
635.157 -1496.07 0 1233.15 -1496.05 0 1664.96 -1504.62 0 
1675.71 -1496.04 0 2542.14 -1496.02 0 -740.107 -1479.65 0 
-740.752 -1479.11 0 -52.7345 -1479.09 0 631.554 -1479.07 0 
1215.6 -1479.05 0 1220.95 -1484.98 0 1696.65 -1479.04 0 
2543.36 -1479.02 0 -754.17 -1462.11 0 -37.0873 -1467.35 0 
-33.6366 -1462.09 0 627.898 -1462.07 0 628.931 -1466.69 0 
1200.27 -1462.05 0 1701.96 -1474.67 0 1718.44 -1462.04 0 
2544.59 -1462.02 0 -765.95 -1445.11 0 -21.5723 -1445.09 0 
624.347 -1445.07 0 1184.94 -1445.05 0 1738.96 -1446.32 0 
1740.63 -1445.04 0 2545.82 -1445.02 0 -777.105 -1429.01 0 
-777.73 -1428.1 0 -9.27291 -1428.08 0 620.744 -1428.07 0 
1169.6 -1428.05 0 1183.95 -1443.95 0 1762.82 -1428.04 0 
2547.05 -1428.02 0 -789.509 -1411.1 0 -0.0832528 -1415.38 0 
3.02639 -1411.08 0 617.141 -1411.07 0 1154.27 -1411.05 0 
1775.96 -1417.97 0 1782.08 -1411.03 0 2548.28 -1411.01 0 
-801.289 -1394.1 0 15.3257 -1394.08 0 613.538 -1394.07 0 
1138.94 -1394.05 0 1146.95 -1402.93 0 1794.22 -1394.03 0 
2549.51 -1394.01 0 -813.069 -1377.1 0 27.625 -1377.08 0 
609.934 -1377.06 0 1123.61 -1377.05 0 1803.48 -1377.03 0 
2550.74 -1377.01 0 -814.103 -1375.61 0 -824.848 -1360.1 0 
36.9208 -1364.23 0 39.9244 -1360.08 0 606.331 -1360.06 0 
1106 -1360.05 0 1109.95 -1363.23 0 1810.59 -1360.03 0 
2547.32 -1360.01 0 -836.628 -1343.1 0 52.2237 -1343.08 0 
602.728 -1343.06 0 1082.84 -1343.05 0 1812.97 -1354.11 0 
1817.42 -1343.03 0 2544.46 -1343.01 0 -848.408 -1326.1 0 
64.523 -1326.08 0 599.125 -1326.06 0 1059.68 -1326.05 0 
1072.95 -1335.79 0 1824.25 -1326.03 0 2541.91 -1326.01 0 
-851.101 -1322.21 0 -860.188 -1309.1 0 73.9248 -1313.08 0 
76.8223 -1309.07 0 593.894 -1309.06 0 1036.53 -1309.05 0 
1831.08 -1309.03 0 2538.66 -1309.01 0 -871.967 -1292.1 0 
89.1216 -1292.07 0 584.857 -1292.06 0 591.939 -1305.38 0 
1013.37 -1292.05 0 1035.95 -1308.63 0 1837.91 -1292.03 0 
2535.4 -1292.01 0 -883.747 -1275.1 0 101.421 -1275.07 0 
577.334 -1275.06 0 993.72 -1275.05 0 998.952 -1281.46 0 
1844.73 -1275.03 0 2532.14 -1275.01 0 -888.099 -1268.82 0 
-895.526 -1258.1 0 110.929 -1261.93 0 113.72 -1258.07 0 
571.24 -1258.06 0 979.806 -1258.05 0 1849.98 -1261.98 0 
1851.56 -1258.02 0 2528.89 -1258.01 0 -907.306 -1241.1 0 
126.02 -1241.07 0 566.26 -1241.06 0 965.825 -1241.05 0 
1862.61 -1241.02 0 2525.63 -1241 0 -919.086 -1224.1 0 
138.319 -1224.07 0 562.532 -1224.06 0 953.804 -1224.05 0 
961.953 -1236.35 0 1873.82 -1224.02 0 2522.38 -1224 0 
-925.096 -1215.42 0 -930.866 -1207.1 0 145.843 -1207.07 0 
558.804 -1207.06 0 942.547 -1207.05 0 1885.03 -1207.02 0 
2519.12 -1207 0 -942.645 -1190.1 0 147.934 -1195.35 0 
148.549 -1190.07 0 555.076 -1190.06 0 931.29 -1190.04 0 
1886.98 -1204.06 0 1896.23 -1190.02 0 2516 -1190.69 0 
2515.87 -1190 0 -954.425 -1173.09 0 150.531 -1173.06 0 
551.289 -1173.05 0 554.945 -1189.46 0 920.415 -1173.04 0 
924.956 -1180.48 0 1907.44 -1173.02 0 2512.63 -1173 0 
-962.094 -1162.03 0 -966.205 -1156.09 0 152.512 -1156.06 0 
547.506 -1156.05 0 910.691 -1156.04 0 1917.89 -1156.02 0 
2509.85 -1156 0 -977.984 -1139.09 0 154.494 -1139.06 0 
543.731 -1139.05 0 902.236 -1139.04 0 1923.98 -1142.87 0 
1925.38 -1139.02 0 2508.65 -1139 0 -991.024 -1122.09 0 
156.475 -1122.06 0 539.963 -1122.05 0 893.781 -1122.04 0 
1931.54 -1122.01 0 2508.23 -1122 0 -999.093 -1114.9 0 
-1010.13 -1105.09 0 158.457 -1105.06 0 536.202 -1105.05 0 
885.325 -1105.04 0 887.959 -1110.34 0 1937.7 -1105.01 0 
2507.81 -1105 0 -1022.39 -1088.09 0 160.438 -1088.06 0 
532.448 -1088.05 0 876.87 -1088.04 0 1943.86 -1088.01 0 
2507.39 -1088 0 -1028.08 -1071.09 0 162.487 -1071.06 0 
528.701 -1071.05 0 868.415 -1071.04 0 1950.02 -1071.01 0 
[...]
POINT_DATA 7121
SCALARS Pressure double
LOOKUP_TABLE default
3.0932710339 3.0932710339 3.0932710339 3.0932710339 3.0932710339 3.0932710339 3.0932710339 3.0932710339 3.0932710339 
3.0932710339 3.0932710339 3.0932710339 3.0932710339 3.0932710339 3.0932710339 3.0932710339 3.0932710339 3.0932710339 
3.0932710339 3.0932710339 3.0932710339 3.0932710339 3.0932710339 3.0932710339 3.0932710339 3.0932710339 3.0932710339 
3.0932710339 3.0932710339 3.0932710339 3.0932710339 3.0932710339 3.0932710339 3.0932710339 3.0932710339 3.0932710339 
3.0932710339 3.0932710339 3.0932710339 3.0932710339 3.0932710339 3.0932710339 3.0932710339 3.0932710339 3.0932710339 
3.0932710339 3.0932710339 3.0932710339 3.0932710339 3.0932710339 3.0932710339 3.0932710339 3.0932710339 3.0932710339 
3.0932710339 3.0932710339 3.0932710339 3.0932710339 3.0932710339 3.0932710339 3.0932710339 3.0932710339 3.0932710339 
3.0932710339 3.0932710339 3.0932710339 3.0932710339 3.0932710339 3.0932710339 3.0932710339 3.0932710339 3.0932710339 
3.0932710339 3.0932710339 3.0932710339 3.0932710339 3.0932710339 3.0932710339 3.0932710339 3.0932710339 3.0932710339 
3.0932710339 3.0932710339 3.0932710339 3.0932710339 3.0932710339 3.0932710339 3.0932710339 3.0932710339 3.0932710339 
3.0932710339 3.0932710339 3.0932710339 3.0932710339 3.0932710339 3.0932710339 3.0932710339 3.0932710339 3.0932710339 
3.0932710339 3.0932710339 3.0932710339 3.0932710339 3.0932710339 3.0932710339 3.0932710339 3.0932710339 3.0932710339 
3.0932710339 3.0932710339 3.0932710339 3.0932710339 3.0932710339 3.0932710339 3.0932710339 3.0932710339 3.0932710339 
3.0932710339 3.0932710339 3.0932710339 3.0932710339 3.0932710339 3.0932710339 3.0932710339 3.0932710339 3.0932710339 
3.0932710339 3.0932710339 3.0932710339 3.0932710339 3.0932710339 3.0932710339 3.0932710339 3.0932710339 3.0932710339 
3.0932710339 3.0932710339 3.0932710339 3.0932710339 3.0932710339 3.0932710339 3.0932710339 3.0932710339 3.0932710339 
3.0932710339 3.0932710339 3.0932710339 3.0932710339 3.0932710339 3.0932710339 3.0932710339 3.0932710339 3.0932710339 
3.0932710339 3.0932710339 3.0932710339 3.0932710339 3.0932710339 3.0932710339 3.0932710339 3.0932710339 3.0932710339 
3.0932710339 3.0932710339 3.0932710339 3.0932710339 3.0932710339 3.0932710339 3.0932710339 3.0932710339 3.0932710339 
3.0932710339 3.0932710339 3.0932710339 3.0932710339 3.0932710339 3.0932710339 3.0932710339 3.0932710339 3.0932710339 
3.0932710339 3.0932710339 3.0932710339 3.0932710339 3.0932710339 3.0932710339 3.0932710339 3.0932710339 3.0932710339 
3.0932710339 3.0932710339 3.0932710339 3.0932710339 3.0932710339 3.0932710339 3.0932710339 3.0932710339 3.0932710339 
3.0932710339 3.0932710339 3.0932710339 3.0932710339 3.0932710339 3.0932710339 3.0932710339 3.0932710339 3.0932710339 
3.0932710339 3.0932710339 3.0932710339 3.0932710339 3.0932710339 3.0932710339 3.0932710339 3.0932710339 3.0932710339 
3.0932710339 3.0932710339 3.0932710339 3.0932710339 3.0932710339 3.0932710339 3.0932710339 3.0932710339 3.0932710339 
3.0932710339 3.0932710339 3.0932710339 3.0932710339 3.0932710339 3.0932710339 3.0932710339 3.0932710339 3.0932710339 
3.0932710339 3.0932710339 3.0932710339 3.0932710339 3.0932710339 3.0932710339 3.0932710339 3.0932710339 3.0932710339 
3.0932710339 3.0932710339 3.0932710339 3.0932710339 3.0932710339 3.0932710339 3.0932710339 3.0932710339 3.0932710339 
3.0932710339 3.0932710339 3.0932710339 3.0932710339 3.0932710339 3.0932710339 3.0932710339 3.0932710339 3.0932710339 
3.0932710339 3.0932710339 3.0786768432 3.0786768432 3.0786768432 3.0786768432 3.0786768432 3.0932710339 3.0932710339 
3.0786768432 3.0786768432 3.0786768432 3.0786768432 3.0932710339 3.0932710339 3.0786768432 3.0786768432 3.0786768432 
3.0786768432 3.0786768432 3.0932710339 3.0932710339 3.0786768432 3.0786768432 3.0786768432 3.0786768432 3.0932710339 
3.1078652246 3.1078652246 3.1078652246 3.1078652246 3.1078652246 3.1078652246 3.1078652246 3.1078652246 3.1078652246 
3.1078652246 3.0932710339 3.0786768432 3.0786768432 3.0786768432 3.0786768432 3.0786768432 3.0932710339 3.1078652246 
3.1078652246 3.1078652246 3.1078652246 3.0932710339 3.0786768432 3.0786768432 3.0786768432 3.0786768432 3.0932710339 
3.1078652246 3.1078652246 3.1078652246 3.0932710339 3.0786768432 3.0786768432 3.0786768432 3.0786768432 3.0786768432 
3.0932710339 3.1078652246 3.1078652246 3.1078652246 3.0932710339 3.0786768432 3.0786768432 3.0786768432 3.0932710339 
3.1078652246 3.1078652246 3.1078652246 3.0932710339 3.0786768432 3.0786768432 3.0786768432 3.0932710339 3.0932710339 
3.1078652246 3.1078652246 3.1078652246 3.0932710339 3.0786768432 3.0786768432 3.0932710339 3.1078652246 3.1078652246 
3.1078652246 3.0932710339 3.0786768432 3.0786768432 3.0786768432 3.0932710339 3.1078652246 3.1078652246 3.1078652246 
3.0932710339 3.0786768432 3.0786768432 3.0786768432 3.0932710339 3.1078652246 3.1078652246 3.1078652246 3.0932710339 
3.0786768432 3.0786768432 3.0932710339 3.1078652246 3.1078652246 3.1078652246 3.0932710339 3.0786768432 3.0786768432 
3.0932710339 3.1078652246 3.1078652246 3.0932710339 3.0786768432 3.0786768432 3.0786768432 3.0786768432 3.0932710339 
3.1078652246 3.1078652246 3.1078652246 3.0932710339 3.0786768432 3.0786768432 3.0932710339 3.1078652246 3.1078652246 
3.1078652246 3.0932710339 3.0786768432 3.0786768432 3.0932710339 3.1078652246 3.1078652246 3.1078652246 3.0932710339 
3.0786768432 3.0786768432 3.0786768432 3.0786768432 3.0932710339 3.1078652246 3.1078652246 3.0932710339 3.0786768432 
3.0786768432 3.0932710339 3.0932710339 3.1078652246 3.1078652246 3.1078652246 3.0932710339 3.0786768432 3.0786768432 
3.0932710339 3.1078652246 3.1078652246 3.1078652246 3.0932710339 3.0786768432 3.0786768432 3.0786768432 3.0786768432 
3.0932710339 3.1078652246 3.1078652246 3.1078652246 3.0932710339 3.0786768432 3.0786768432 3.0932710339 3.1078652246 
3.1078652246 3.0932710339 3.0786768432 3.0786768432 3.0932710339 3.1078652246 3.1078652246 3.1078652246 3.0932710339 
3.0786768432 3.0786768432 3.0786768432 3.0932710339 3.1078652246 3.1078652246 3.0932710339 3.0786768432 3.0786768432 
3.0786768432 3.0932710339 3.1078652246 3.1078652246 3.1078652246 3.0932710339 3.0932710339 3.0786768432 3.0786768432 
3.0932710339 3.0932710339 3.1078652246 3.1078652246 3.1078652246 3.0932710339 3.0786768432 3.0786768432 3.0786768432 
3.0932710339 3.1078652246 3.1078652246 3.0932710339 3.0786768432 3.0786768432 3.0932710339 3.1078652246 3.1078652246 
3.1078652246 3.0932710339 3.0786768432 3.0786768432 3.0932710339 3.1078652246 3.1078652246 3.0932710339 3.0786768432 
3.0786768432 3.0786768432 3.0932710339 3.1078652246 3.1078652246 3.1078652246 3.0932710339 3.0786768432 3.0786768432 
3.0932710339 3.1078652246 3.1078652246 3.0932710339 3.0786768432 3.0786768432 3.0932710339 3.1078652246 3.1078652246 
3.0932710339 3.0786768432 3.0786768432 3.0932710339 3.1078652246 3.1078652246 3.0932710339 3.0786768432 3.0786768432 
3.0932710339 3.1078652246 3.1078652246 3.1078652246 3.1078652246 3.0932710339 3.0786768432 3.0786768432 3.0932710339 
3.0932710339 3.1078652246 3.1078652246 3.0932710339 3.0786768432 3.0786768432 3.0786768432 3.0786768432 3.0932710339 
3.1078652246 3.1078652246 3.0932710339 3.0786768432 3.0786768432 3.0932710339 3.1078652246 3.1078652246 3.1078652246 
3.0932710339 3.0786768432 3.0786768432 3.0932710339 3.1078652246 3.1078652246 3.0932710339 3.0786768432 3.0786768432 
3.0932710339 3.1078652246 3.1078652246 3.0932710339 3.0786768432 3.0786768432 3.0932710339 3.1078652246 3.1078652246 
3.1078652246 3.1078652246 3.0932710339 3.0786768432 3.0786768432 3.0932710339 3.1078652246 3.1078652246 3.0932710339 
3.0786768432 3.0786768432 3.0932710339 3.1078652246 3.1224594153 3.1224594153 3.1224594153 3.1078652246 3.0932710339 
3.0786768432 3.0786768432 3.0932710339 3.1078652246 3.1224594153 3.1224594153 3.1224594153 3.1224594153 3.1224594153 
3.1224594153 3.1224594153 3.1078652246 3.0932710339 3.0786768432 3.0786768432 3.0932710339 3.0932710339 3.1078652246 
3.1078652246 3.1224594153 3.1224594153 3.1224594153 3.1224594153 3.1078652246 3.0932710339 3.0786768432 3.0786768432 
3.0932710339 3.1078652246 3.1224594153 3.1224594153 3.1224594153 3.1224594153 3.1078652246 3.0932710339 3.0786768432 
3.0786768432 3.0932710339 3.1078652246 3.1224594153 3.1224594153 3.1224594153 3.1224594153 3.1224594153 3.1078652246 
3.0932710339 3.0786768432 3.0786768432 3.0786768432 3.0932710339 3.1078652246 3.1224594153 3.1224594153 3.1078652246 
3.0932710339 3.0786768432 3.0786768432 3.0932710339 3.1078652246 3.1078652246 3.1224594153 3.1224594153 3.1224594153 
3.1078652246 3.1078652246 3.0932710339 3.0932710339 3.0786768432 3.0786768432 3.0932710339 3.1078652246 3.1224594153 
3.1224594153 3.1224594153 3.1224594153 3.1078652246 3.0932710339 3.0786768432 3.0786768432 3.0786768432 3.0786768432 
3.0786768432 3.0786768432 3.0932710339 3.1078652246 3.1224594153 3.1224594153 3.1078652246 3.0932710339 3.0786768432 
3.0786768432 3.0786768432 3.0786768432 3.0640826525 3.0640826525 3.0640826525 3.0640826525 3.0640826525 3.0640826525 
3.0640826525 3.0786768432 3.0932710339 3.1078652246 3.1078652246 3.1224594153 3.1224594153 3.1224594153 3.1078652246 
3.0932710339 3.0932710339 3.0786768432 3.0786768432 3.0786768432 3.0786768432 3.0786768432 3.0786768432 3.0640826525 
3.0640826525 3.0640826525 3.0640826525 3.0786768432 3.0932710339 3.0932710339 3.1078652246 3.1224594153 3.1224594153 
3.1224594153 3.1078652246 3.0932710339 3.0786768432 3.0786768432 3.0786768432 3.0786768432 3.0786768432 3.0786768432 
3.0640826525 3.0640826525 3.0640826525 3.0786768432 3.0932710339 3.1078652246 3.1224594153 3.1224594153 3.1224594153 
3.1078652246 3.0932710339 3.0786768432 3.0786768432 3.0786768432 3.0786768432 3.0786768432 3.0786768432 3.0640826525 
3.0640826525 3.0640826525 3.0640826525 3.0786768432 3.0932710339 3.1078652246 3.1224594153 3.1224594153 3.1078652246 
3.0932710339 3.0786768432 3.0786768432 3.0786768432 3.0786768432 3.0786768432 3.0640826525 3.0640826525 3.0786768432 
3.0932710339 3.1078652246 3.1078652246 3.1224594153 3.1224594153 3.1224594153 3.1224594153 3.1078652246 3.0932710339 
3.0786768432 3.0786768432 3.0786768432 3.0786768432 3.0640826525 3.0640826525 3.0640826525 3.0640826525 3.0786768432 
3.0932710339 3.1078652246 3.1224594153 3.1224594153 3.1078652246 3.1078652246 3.0932710339 3.0786768432 3.0786768432 
3.0786768432 3.0786768432 3.0640826525 3.0640826525 3.0786768432 3.0932710339 3.1078652246 3.1224594153 3.1224594153 
3.1224594153 3.1078652246 3.0932710339 3.0932710339 3.0786768432 3.0786768432 3.0786768432 3.0786768432 3.0640826525 
3.0640826525 3.0640826525 3.0786768432 3.0932710339 3.1078652246 3.1224594153 3.1224594153 3.1078652246 3.0932710339 
3.0786768432 3.0786768432 3.0786768432 3.0786768432 3.0640826525 3.0640826525 3.0640826525 3.0786768432 3.0932710339 
3.1078652246 3.1224594153 3.1224594153 3.1224594153 3.1224594153 3.1078652246 3.0932710339 3.0786768432 3.0786768432 
3.0786768432 3.0786768432 3.0640826525 3.0640826525 3.0640826525 3.0786768432 3.0932710339 3.1078652246 3.1224594153 
3.1224594153 3.1078652246 3.0932710339 3.0786768432 3.0786768432 3.0786768432 3.0640826525 3.0640826525 3.0640826525 
3.0786768432 3.0932710339 3.0932710339 3.1078652246 3.1078652246 3.1224594153 3.1224594153 3.1078652246 3.0932710339 
3.0786768432 3.0786768432 3.0786768432 3.0786768432 3.0640826525 3.0640826525 3.0786768432 3.0932710339 3.1078652246 
3.1224594153 3.1224594153 3.1224594153 3.1078652246 3.0932710339 3.0786768432 3.0786768432 3.0786768432 3.0640826525 
3.0640826525 3.0786768432 3.0932710339 3.1078652246 3.1224594153 3.1224594153 3.1224594153 3.1078652246 3.0932710339 
3.0786768432 3.0786768432 3.0786768432 3.0640826525 3.0640826525 3.0786768432 3.0932710339 3.1078652246 3.1078652246 
3.1224594153 3.1224594153 3.137053606 3.137053606 3.137053606 3.137053606 3.1224594153 3.1078652246 3.0932710339 
3.0786768432 3.0786768432 3.0786768432 3.0786768432 3.0786768432 3.0640826525 3.0640826525 3.0786768432 3.0932710339 
3.1078652246 3.1224594153 3.137053606 3.137053606 3.137053606 3.137053606 3.1224594153 3.1078652246 3.1078652246 
3.0932710339 3.0786768432 3.0786768432 3.0786768432 3.0786768432 3.0640826525 3.0640826525 3.0640826525 3.0640826525 
3.0786768432 3.0932710339 3.1078652246 3.1224594153 3.1224594153 3.137053606 3.137053606 3.137053606 3.137053606 
3.1224594153 3.1078652246 3.0932710339 3.0786768432 3.0786768432 3.0786768432 3.0640826525 3.0640826525 3.0786768432 
3.0932710339 3.1078652246 3.1078652246 3.1224594153 3.137053606 3.137053606 3.1224594153 3.1078652246 3.0932710339 
3.0786768432 3.0786768432 3.0786768432 3.0786768432 3.0640826525 3.0640826525 3.0786768432 3.0932710339 3.1078652246 
3.1224594153 3.137053606 3.137053606 3.137053606 3.137053606 3.1224594153 3.1224594153 3.1078652246 3.0932710339 
3.0786768432 3.0786768432 3.0786768432 3.0640826525 3.0494884618 3.0494884618 3.0494884618 3.0640826525 3.0786768432 
3.0932710339 3.0932710339 3.1078652246 3.1224594153 3.1224594153 3.137053606 3.137053606 3.137053606 3.137053606 
3.1224594153 3.1078652246 3.0932710339 3.0786768432 3.0786768432 3.0786768432 3.0640826525 3.0494884618 3.0494884618 
3.0494884618 3.0494884618 3.0494884618 3.0640826525 3.0786768432 3.0932710339 3.1078652246 3.1224594153 3.137053606 
3.137053606 3.1224594153 3.1078652246 3.0932710339 3.0786768432 3.0786768432 3.0786768432 3.0786768432 3.0640826525 
3.0640826525 3.0494884618 3.0494884618 3.0494884618 3.0640826525 3.0786768432 3.0932710339 3.1078652246 3.1078652246 
3.1224594153 3.137053606 3.137053606 3.137053606 3.137053606 3.1224594153 3.1078652246 3.0932710339 3.0786768432 
3.0786768432 3.0786768432 3.0640826525 3.0494884618 3.0494884618 3.0494884618 3.0494884618 3.0640826525 3.0786768432 
3.0932710339 3.1078652246 3.1224594153 3.1224594153 3.137053606 3.137053606 3.137053606 3.1224594153 3.1078652246 
3.0932710339 3.0786768432 3.0786768432 3.0786768432 3.0640826525 3.0494884618 3.0494884618 3.0640826525 3.0786768432 
3.0932710339 3.1078652246 3.1224594153 3.137053606 3.137053606 3.1224594153 3.1078652246 3.0932710339 3.0932710339 
3.0786768432 3.0786768432 3.0786768432 3.0786768432 3.0786768432 3.0640826525 3.0494884618 3.0494884618 3.0494884618 
3.0640826525 3.0786768432 3.0932710339 3.0932710339 3.1078652246 3.1078652246 3.1224594153 3.137053606 3.137053606 
3.137053606 3.137053606 3.1224594153 3.1078652246 3.0932710339 3.0786768432 3.0786768432 3.0786768432 3.0640826525 
3.0494884618 3.0494884618 3.0494884618 3.0640826525 3.0786768432 3.0932710339 3.1078652246 3.1224594153 3.1224594153 
3.137053606 3.137053606 3.1224594153 3.1078652246 3.0932710339 3.0786768432 3.0786768432 3.0786768432 3.0640826525 
3.0494884618 3.0494884618 3.0494884618 3.0640826525 3.0786768432 3.0932710339 3.1078652246 3.1224594153 3.137053606 
3.137053606 3.1224594153 3.1078652246 3.0932710339 3.0786768432 3.0786768432 3.0786768432 3.0786768432 3.0640826525 
3.0494884618 3.0494884618 3.0640826525 3.0786768432 3.0932710339 3.1078652246 3.1224594153 3.137053606 3.137053606 
3.137053606 3.1224594153 3.1078652246 3.0932710339 3.0786768432 3.0786768432 3.0786768432 3.0786768432 3.0640826525 
3.0494884618 3.0494884618 3.0494884618 3.0640826525 3.0786768432 3.0932710339 3.1078652246 3.1078652246 3.1224594153 
3.137053606 3.137053606 3.137053606 3.1224594153 3.1078652246 3.0932710339 3.0786768432 3.0786768432 3.0786768432 
3.0786768432 3.0640826525 3.0640826525 3.0494884618 3.0348942711 3.0348942711 3.0348942711 3.0494884618 3.0640826525 
3.0786768432 3.0932710339 3.1078652246 3.1224594153 3.1224594153 3.137053606 3.137053606 3.1224594153 3.1078652246 
3.0932710339 3.0786768432 3.0786768432 3.0786768432 3.0786768432 3.0640826525 3.0494884618 3.0348942711 3.0348942711 
3.0348942711 3.0494884618 3.0494884618 3.0640826525 3.0786768432 3.0786768432 3.0932710339 3.0932710339 3.1078652246 
3.1224594153 3.137053606 3.137053606 3.137053606 3.1224594153 3.1078652246 3.0932710339 3.0786768432 3.0640826525 
3.0640826525 3.0640826525 3.0640826525 3.0786768432 3.0786768432 3.0786768432 3.0786768432 3.0640826525 3.0494884618 
3.0348942711 3.0348942711 3.0348942711 3.0348942711 3.0494884618 3.0640826525 3.0786768432 3.0932710339 3.1078652246 
3.1224594153 3.137053606 3.137053606 3.1224594153 3.1078652246 3.0932710339 3.0786768432 3.0640826525 3.0640826525 
3.0640826525 3.0640826525 3.0786768432 3.0786768432 3.0786768432 3.0640826525 3.0494884618 3.0348942711 3.0348942711 
3.0348942711 3.0348942711 3.0494884618 3.0640826525 3.0640826525 3.0786768432 3.0932710339 3.1078652246 3.1224594153 
3.137053606 3.137053606 3.1224594153 3.1078652246 3.0932710339 3.0786768432 3.0640826525 3.0640826525 3.0640826525 
3.0786768432 3.0786768432 3.0786768432 3.0786768432 3.0786768432 3.0640826525 3.0494884618 3.0348942711 3.0348942711 
3.0494884618 3.0640826525 3.0786768432 3.0932710339 3.1078652246 3.1224594153 3.137053606 3.137053606 3.137053606 
3.1224594153 3.1078652246 3.1078652246 3.0932710339 3.0786768432 3.0786768432 3.0640826525 3.0640826525 3.0640826525 
3.0640826525 3.0786768432 3.0786768432 3.0786768432 3.0786768432 3.0640826525 3.0494884618 3.0348942711 3.0348942711 
3.0348942711 3.0494884618 3.0640826525 3.0640826525 3.0786768432 3.0932710339 3.1078652246 3.1078652246 3.1224594153 
3.137053606 3.137053606 3.137053606 3.1224594153 3.1078652246 3.0932710339 3.0786768432 3.0640826525 3.0640826525 
3.0640826525 3.0786768432 3.0786768432 3.0786768432 3.0640826525 3.0494884618 3.0494884618 3.0348942711 3.0203000804 
3.0203000804 3.0203000804 3.0203000804 3.0348942711 3.0348942711 3.0494884618 3.0640826525 3.0786768432 3.0932710339 
3.1078652246 3.1224594153 2.9619233175 2.9619233175 2.9765175082 2.9765175082 2.991111699 2.991111699 3.0057058897 
3.0057058897 3.0203000804 3.0203000804 3.0348942711 3.0348942711 3.0494884618 3.0494884618 3.0640826525 3.0640826525 
3.0786768432 3.0786768432 3.0932710339 3.0932710339 3.1078652246 3.1078652246 3.1224594153 3.1224594153 3.137053606 
2.9619233175 2.9765175082 2.991111699 3.0057058897 3.0203000804 3.0348942711 3.0494884618 3.0640826525 3.0786768432 
3.0932710339 3.1078652246 3.1224594153 3.137053606 2.9619233175 2.9765175082 2.991111699 3.0057058897 3.0203000804 
3.0348942711 3.0494884618 3.0640826525 3.0786768432 3.0932710339 3.1078652246 3.1224594153 3.137053606 2.9619233175 
2.9765175082 2.991111699 3.0057058897 3.0203000804 3.0348942711 3.0494884618 3.0640826525 3.0786768432 3.0932710339 
3.1078652246 3.1224594153 3.137053606 2.9619233175 2.9765175082 2.991111699 3.0057058897 3.0203000804 3.0348942711 
3.0494884618 3.0640826525 3.0786768432 3.0932710339 3.1078652246 3.1224594153 3.137053606 2.9619233175 2.9765175082 
2.991111699 3.0057058897 3.0203000804 3.0348942711 3.0494884618 3.0640826525 3.0786768432 3.0932710339 3.1078652246 
3.1224594153 3.137053606 2.9619233175 2.9765175082 2.991111699 3.0057058897 3.0203000804 3.0348942711 3.0494884618 
3.0640826525 3.0786768432 3.0932710339 3.1078652246 3.1224594153 3.137053606 2.9619233175 2.9765175082 2.991111699 
3.0057058897 3.0203000804 3.0348942711 3.0494884618 3.0640826525 3.0786768432 3.0932710339 3.1078652246 3.1224594153 
3.137053606 2.9619233175 2.9765175082 2.991111699 3.0057058897 3.0203000804 3.0348942711 3.0494884618 3.0640826525 
3.0786768432 3.0932710339 3.1078652246 3.1224594153 3.137053606 2.9619233175 2.9765175082 2.991111699 3.0057058897 
3.0203000804 3.0348942711 3.0494884618 3.0640826525 3.0786768432 3.0932710339 3.1078652246 3.1224594153 3.137053606 
3.137053606 3.137053606 3.1224594153 3.1078652246 3.0932710339 3.0786768432 3.0640826525 3.0640826525 3.0786768432 
3.0786768432 3.0786768432 3.0640826525 3.0494884618 3.0348942711 3.0203000804 3.0203000804 3.0203000804 3.0348942711 
3.0494884618 3.0640826525 3.0786768432 3.0932710339 3.1078652246 2.9619233175 2.9619233175 2.9765175082 2.9765175082 
2.991111699 2.991111699 3.0057058897 3.0057058897 3.0203000804 3.0203000804 3.0348942711 3.0348942711 3.0494884618 