# vtk DataFile Version 4.2
vtk output
ASCII
DATASET UNSTRUCTURED_GRID
POINTS 1740 double
2144.07 -94.44003 0 2911 0 0 16.54298 -37.82236 0 
5.09149 -21.30132 0 1.27433 -10.75385 0 0 0 0 
2.54575 15.14293 0 6.36291 23.76126 0 14.00014 34.89063 0 
30.50239 50.70793 0 33.39435 -52.93479 0 2050.91 -103.7862 0 
60.1465 -69.72165 0 88.83633 -83.2817 0 118.7656 -94.71113 0 
153.4168 -105.7022 0 199.5806 -117.771 0 261.4466 -130.7139 0 
345.846 -144.1892 0 460.3522 -157.0592 0 608.4185 -167.1903 0 
783.2313 -172.4016 0 941.0559 -172.4533 0 1063.409 -170.1096 0 
1164.153 -166.8746 0 1263.449 -162.682 0 1375.468 -156.8941 0 
1513.293 -148.414 0 1665.281 -137.5317 0 1791.864 -127.3721 0 
2195.451 -89.09491 0 2273.924 -80.67077 0 2383.731 -68.3513 0 
2517.64 -52.47337 0 2649.227 -35.9232 0 2740.773 -23.82991 0 
2804.387 -15.13419 0 2848.802 -8.916218 0 2881.944 -4.196067 0 
56.61447 67.79801 0 84.09687 81.25172 0 112.4783 92.48395 0 
142.1748 102.3504 0 174.8563 111.6168 0 213.124 120.8806 0 
260.3759 130.5151 0 324.6539 141.1779 0 418.1422 152.9178 0 
535.6656 162.9871 0 690.9154 170.4255 0 902.6513 172.7852 0 
1100.32 169.0517 0 1270.99 162.3262 0 1462.794 151.6837 0 
1631.287 140.0952 0 1747.993 131 0 1922.788 115.9027 0 
2069.56 101.951 0 2128.804 96.0021 0 2297.147 78.11721 0 
2414.379 64.80104 0 2554.023 47.99319 0 2673.693 32.73885 0 
2757.97 21.50315 0 2814.297 13.7575 0 2852.02 8.460961 0 
2882.272 4.148909 0 1791.052 127.4402 0 1366.894 157.3738 0 
1444.38 -152.8302 0 1547.039 146.1296 0 1589.287 -143.1614 0 
1878.731 119.8675 0 1997.072 108.9828 0 1185.654 166.0472 0 
1882.536 -119.5292 0 1971.323 -111.4145 0 1684.777 136.0292 0 
2099.317 -98.9855 0 2234.809 84.9091 0 2181.695 90.53914 0 
1728.573 -132.5703 0 1718.815 133.3509 0 1834.825 123.7132 0 
1960.305 112.4444 0 2033.69 105.4648 0 2099.184 98.99892 0 
2214.291 -78.53244251 396.8421 2955.512 11.698279422 396.8421 158.0786 -29.591699002 396.8421 
147.0109 -13.707122598 396.8421 143.3217 -3.5506010288 396.8421 142.09 6.8161976367 396.8421 
144.5505 21.433277816 396.8421 148.2398 29.76276402 396.8421 155.621 40.531078539 396.8421 
171.5701 55.859934537 396.8421 174.3652 -44.09395285 396.8421 2124.254 -87.57608375 396.8421 
200.2206 -60.16813079 396.8421 227.9488 -73.122063927 396.8421 256.8748 -84.0163584 396.8421 
290.3647 -94.468478669 396.8421 334.981 -105.91241378 396.8421 394.7733 -118.13623252 396.8421 
476.3434 -130.78613774 396.8421 587.0114 -142.74320148 396.8421 730.1145 -151.95268053 396.8421 
899.0676 -156.35977513 396.8421 1051.602 -155.89573915 396.8421 1169.853 -153.2687815 396.8421 
1267.221 -149.86905293 396.8421 1363.188 -145.5703835 396.8421 1471.452 -139.72586575 396.8421 
1604.657 -131.26371281 396.8421 1751.55 -120.50848153 396.8421 1873.891 -110.53845579 396.8421 
2263.949 -73.372260321 396.8421 2339.792 -65.25575389 396.8421 2445.918 -53.418963254 396.8421 
2575.338 -38.214661586 396.8421 2702.515 -22.421261043 396.8421 2790.992 -10.91230612 396.8421 
2852.473 -2.6516130769 396.8421 2895.4 3.2481364397 396.8421 2927.431 7.722947345 396.8421 
196.807 72.458401008 396.8421 223.3682 85.55499686 396.8421 250.7983 96.512399561 396.8421 
279.4994 106.15759509 396.8421 311.0855 115.2363759 396.8421 348.0705 124.33580748 396.8421 
393.7383 133.83002634 396.8421 455.8617 144.38590232 396.8421 546.2162 156.09758732 396.8421 
659.8003 166.28550603 396.8421 809.846 174.06410286 396.8421 1014.485 177.10824246 396.8421 
1205.528 174.15382597 396.8421 1370.477 168.16043411 396.8421 1555.851 158.3676592 396.8421 
1718.696 147.52404556 396.8421 1831.49 138.93435376 396.8421 2000.426 124.5660919 396.8421 
2142.278 111.19206807 396.8421 2199.537 105.46592951 396.8421 2362.236 88.177026741 396.8421 
2475.539 75.241018615 396.8421 2610.501 58.845934707 396.8421 2726.16 43.909174672 396.8421 
2807.613 32.87661125 396.8421 2862.05 25.257147532 396.8421 2898.509 20.040799729 396.8421 
2927.749 15.790550155 396.8421 1873.106 135.55769303 396.8421 1463.165 163.63138792 396.8421 
1538.054 -135.65918645 396.8421 1637.272 153.1874303 396.8421 1678.104 -126.0608097 396.8421 
1957.846 128.35094164 396.8421 2072.22 117.94304609 396.8421 1288 171.51073714 396.8421 
1961.524 -102.87780798 396.8421 2047.334 -94.979044905 396.8421 1770.393 143.69128059 396.8421 
2171.038 -82.927397371 396.8421 2301.989 94.754857064 396.8421 2250.655 100.19628411 396.8421 
1812.721 -115.63238366 396.8421 1803.29 141.15998492 396.8421 1915.411 132.01455105 396.8421 
2036.686 121.25870066 396.8421 2107.61 114.56801169 396.8421 2170.909 108.35220459 396.8421 
2284.511 -64.882130683 793.6842 3000.027 21.454432563 793.6842 299.6143 -21.511665682 793.6842 
288.9304 -6.2365489536 793.6842 285.3691 3.5423434076 793.6842 284.1801 13.532770428 793.6842 
286.5551 27.634248769 793.6842 290.1167 35.678139487 793.6842 297.2417 46.086553091 793.6842 
312.6379 60.92242659 793.6842 315.336 -35.435667836 793.6842 2197.597 -73.603780378 793.6842 
340.2947 -50.842023185 793.6842 367.0612 -63.234532226 793.6842 394.9839 -73.638323073 793.6842 
427.3123 -83.601611552 793.6842 470.3812 -94.485942791 793.6842 528.0998 -106.07621871 793.6842 
606.8411 -118.01505925 793.6842 713.6708 -129.21107851 793.6842 851.8104 -137.68985717 793.6842 
1014.904 -141.50962847 793.6842 1162.147 -140.71622043 793.6842 1276.298 -137.94281676 793.6842 
1370.288 -134.48527534 793.6842 1462.927 -130.18011146 793.6842 1567.436 -124.38409059 793.6842 
1696.021 -116.05664094 793.6842 1837.82 -105.53975406 793.6842 1955.917 -95.836223846 793.6842 
2332.447 -59.913006167 793.6842 2405.659 -52.106816067 793.6842 2508.105 -40.742344756 793.6842 
2633.037 -26.175253008 793.6842 2755.801 -11.07547337 793.6842 2841.209 -0.089913570627 793.6842 
2900.561 7.786721879 793.6842 2941.997 13.408233702 793.6842 2972.917 17.669905702 793.6842 
336.9995 77.014966901 793.6842 362.6396 89.735247489 793.6842 389.1182 100.39529875 793.6842 
416.8239 109.79378035 793.6842 447.3145 118.65507462 793.6842 483.0167 127.55319844 793.6842 
527.1009 136.85909199 793.6842 587.0697 147.23934342 793.6842 674.2905 158.81754281 793.6842 
783.9349 168.98495431 793.6842 928.7766 176.91212875 793.6842 1126.317 180.37419478 793.6842 
1310.735 177.95385951 793.6842 1469.963 172.49095124 793.6842 1648.908 163.33937418 793.6842 
1806.105 153.07951241 793.6842 1914.987 144.89809767 793.6842 2078.064 131.13967843 793.6842 
2214.996 118.27100766 793.6842 2270.269 112.74627553 793.6842 2427.326 96.019721737 793.6842 
2536.699 83.465774356 793.6842 2666.98 67.515157452 793.6842 2778.628 52.950222028 793.6842 
2857.255 42.174765026 793.6842 2909.806 34.72512061 793.6842 2945.001 29.621677261 793.6842 
2973.224 25.461525435 793.6842 1955.16 141.67203968 793.6842 1559.437 168.27813891 793.6842 
1631.729 -120.37473554 793.6842 1727.505 158.4495758 793.6842 1766.921 -110.96151771 793.6842 
2036.96 134.771316 793.6842 2147.368 124.77337452 793.6842 1390.347 175.56982903 793.6842 
2040.511 -88.403159554 793.6842 2123.346 -80.756505801 793.6842 1856.009 149.43375282 793.6842 
2242.759 -69.11847375 793.6842 2369.167 102.39111254 793.6842 2319.614 107.65493193 793.6842 
1896.869 -100.78941067 793.6842 1887.765 147.02161238 793.6842 1995.998 138.28188736 793.6842 
2113.066 127.96224665 793.6842 2181.531 121.52421322 793.6842 2242.634 115.53205587 793.6842 
2354.732 -53.320567558 1190.526 3044.539 29.395565745 1190.526 441.15 -14.048547756 1190.526 
430.8497 0.63890636613 1190.526 427.4164 10.050698442 1190.526 426.2701 19.672972928 1190.526 
428.5601 33.266216506 1190.526 431.9934 41.026411154 1190.526 438.8627 51.074796668 1190.526 
453.7057 65.412020812 1190.526 456.3069 -27.42052861 1190.526 2270.94 -61.714888303 1190.526 
480.3688 -42.196002299 1190.526 506.1737 -54.063872944 1190.526 533.0934 -64.013808251 1190.526 
564.26 -73.529235663 1190.526 605.7815 -83.906788102 1190.526 661.4265 -94.931886571 1190.526 
737.3385 -106.24980109 1190.526 840.33 -116.80160941 1190.526 973.5064 -124.692757 1190.526 
1130.74 -128.08263356 1190.526 1272.693 -127.09033274 1190.526 1382.742 -124.26381742 1190.526 
1473.356 -120.81988059 1190.526 1562.666 -116.57337623 1190.526 1663.42 -110.89266513 1190.526 
1787.385 -102.77243188 1190.526 1924.09 -92.559954366 1190.526 2037.944 -83.166164087 1190.526 
2400.946 -48.542223404 1190.526 2471.527 -41.041497031 1190.526 2570.292 -30.132936499 1190.526 
2690.735 -16.167206708 1190.526 2809.091 -1.7079133118 1190.526 2891.43 8.8023654786 1190.526 
2948.647 16.333972217 1190.526 2988.597 21.707253989 1190.526 3018.403 25.779751874 1190.526 
477.1918 80.984521779 1190.526 501.9109 93.31062805 1190.526 527.4382 103.653131 1190.526 
554.1485 112.78242939 1190.526 583.5435 121.40038366 1190.526 617.963 130.06603921 1190.526 
660.4633 139.14376191 1190.526 718.2775 149.29253682 1190.526 802.3645 160.65374785 1190.526 
908.0698 170.69318778 1190.526 1047.707 178.62555144 1190.526 1238.151 182.31314513 1190.526 
1415.942 180.25618837 1190.526 1569.449 175.18750298 1190.526 1741.965 166.54088934 1190.526 
1893.514 156.76294957 1190.526 1998.484 148.93070164 1190.526 2155.702 135.71332551 1190.526 
2287.714 123.31238513 1190.526 2341.001 117.97952549 1190.526 2492.415 101.80717258 1190.526 
2597.858 89.647175103 1190.526 2723.46 74.17509534 1190.526 2831.095 60.029390204 1190.526 
2906.899 49.554950318 1190.526 2957.56 42.309506356 1190.526 2991.49 37.344256901 1190.526 
3018.699 33.295816491 1190.526 2037.214 145.83611649 1190.526 1655.708 171.2203843 1190.526 
1725.403 -106.97827232 1190.526 1817.738 161.88831194 1190.526 1855.738 -97.819997917 1190.526 
2116.075 139.20682949 1190.526 2222.516 129.58231809 1190.526 1492.694 178.06160841 1190.526 
2119.498 -75.984516864 1190.526 2199.357 -68.60718076 1190.526 1941.625 153.27577003 1190.526 
2314.479 -57.396657538 1190.526 2436.346 107.97180636 1190.526 2388.573 113.06090479 1190.526 
1981.017 -87.958239497 1190.526 1972.24 150.96583844 1190.526 2076.584 142.58080132 1190.526 
[...]
POINT_DATA 1740
FIELD FieldData 1
Pressure 1 1740 double
3.1052463364 3.0185592024 3.0092686221 2.9856939395 2.9785827586 2.9593934588 2.9715088342 2.9886517577 3.0197290639 
3.0337052428 3.0103502901 3.1092592784 3.0332460883 3.0476536821 3.0649720881 3.0638366013 3.0813677555 3.0866953585 
3.1072731503 3.1126613042 3.1312103889 3.139761841 3.1422518251 3.1481337411 3.143901484 3.139914237 3.1364764847 
3.1328884231 3.1260206262 3.1202703172 3.1026370741 3.099164802 3.093508101 3.0852935613 3.0743527634 3.064211664 
3.0542851051 3.0455486642 3.0374906157 3.06972515 3.0816492596 3.0941248258 3.1073949013 3.1136149148 3.1203241032 
3.127654466 3.1353836345 3.1511771153 3.1636978044 3.1809804389 3.1920794005 3.1986176015 3.2048177586 3.2107578238 
3.2146818273 3.2176215822 3.2185662594 3.1231423962 3.0996435643 3.08739839 3.0810729054 3.0720029661 3.0623255162 
3.052065643 3.041673365 3.0341388684 3.0327394005 3.2174951858 3.2083671928 3.1352680725 3.2119548755 3.1294520226 
3.2180899018 3.2191652488 3.2052788952 3.1164366367 3.1127281292 3.2156463748 3.1071313175 3.0918367347 3.0944998945 
3.122946816 3.2172617955 3.2180808348 3.2192776164 3.2335176342 3.1001934306 3.1022554335 3.0234004064 3.0274847501 
3.000864588 3.0077836658 2.9861885809 2.9939819009 3.0058450172 3.0341264499 3.0525391866 3.0345576704 3.1065962692 
3.0550416779 3.0674049157 3.0809378584 3.0850359774 3.1003060873 3.1098279092 3.122975872 3.1283634332 3.138373323 
3.1430678374 3.1468773349 3.1474891014 3.1432585578 3.1385662476 3.1333156066 3.1289538614 3.1228180984 3.1174565051 
3.0999382788 3.0958102914 3.0900947896 3.0820359011 3.0710630028 3.0609088509 3.0511070921 3.0434498831 3.0281411192 
3.0858288745 3.1069242091 3.1190556838 3.1275005337 3.1366816121 3.1413102775 3.1468752537 3.1573614385 3.1692219073 
3.1779830098 3.1877943223 3.1958087172 3.2021142766 3.2086017151 3.2118942647 3.2148827342 3.2174592588 3.2199880671 
3.0928596515 3.0974186154 3.0901864424 3.0841544524 3.0757398812 3.0652275775 3.0551252935 3.0450832477 3.0385236956 
3.0393372668 3.2181983721 3.2104219781 3.1320774319 3.2143761687 3.125621753 3.2193547756 3.2154518952 3.2069628992 
3.113545274 3.1098598775 3.2161088711 3.1046389345 3.0934517662 3.0957964465 3.12032922 3.2168508247 3.2182363053 
3.2209595081 3.1469150507 3.0963350397 3.1002088664 3.0233656117 3.0279661318 3.0002213252 3.0023349531 2.9845760246 
2.9970895855 3.0106583661 3.0393697952 3.0605876042 3.0427814439 3.1044997388 3.0578692431 3.0768947776 3.0950661237 
3.1017888779 3.1141342143 3.1223580014 3.135279786 3.1415946329 3.1482309357 3.1509125557 3.1505928499 3.1491370009 
3.1432514418 3.1373892517 3.1320911657 3.1262418123 3.1208008961 3.1155672465 3.0978242525 3.0939886793 3.0880833464 
3.0801707161 3.0690677072 3.0587664193 3.0495036521 3.0421866339 3.0285115338 3.093585332 3.1153328525 3.1337702311 
3.1428422169 3.1531254114 3.1618803722 3.1718168204 3.1759725843 3.1846231957 3.194533713 3.2002948506 3.206066614 
3.2084831242 3.2149575071 3.2178892021 3.2185161203 3.2201245031 3.222901987 3.0942661218 3.0930581246 3.0899957931 
3.0847515947 3.0768480086 3.0662821677 3.0564876624 3.0467634389 3.0396370949 3.0411578899 3.220807068 3.2166724604 
3.1296308289 3.2184721171 3.1234697068 3.2214978052 3.1249514891 3.2123947114 3.1116041122 3.1078282339 3.2188704878 
3.1026124304 3.0926247139 3.0937148133 3.1182795427 3.2193145168 3.2213482722 3.2216829939 3.0910897412 3.0939698774 
3.0988135228 3.0234869134 3.0285234809 3.0003108172 3.0027542271 2.9825578795 2.9930451566 3.0074894594 3.0402846543 
3.0618818915 3.042093825 3.1030723126 3.0625579674 3.080095378 3.0990249204 3.1080267692 3.1200289059 3.1287392064 
3.1411232496 3.1486240448 3.1544467032 3.1558974523 3.1543693267 3.1507938217 3.1438765167 3.1375168688 3.1315606945 
3.1255961054 3.1194212785 3.1141921412 3.0965092827 3.0926575404 3.0869749499 3.0791066467 3.0681688141 3.0579116792 
3.0490232327 3.0416928949 3.028569316 3.0977839103 3.1211348793 3.1364619726 3.1486615623 3.156218083 3.1672275302 
3.1797848387 3.189629103 3.1975783774 3.2071470749 3.2127295131 3.217480514 3.2180863198 3.2236111781 3.2257365212 
3.2253811304 3.2262353538 3.2278280173 3.0916978859 3.0926644209 3.0891780865 3.0840063555 3.0760109622 3.0659569618 
3.0563220588 3.0469134207 3.0394966401 3.0414125285 3.2263412058 3.2248285342 3.1290564662 3.2257889963 3.1223463113 
3.2266076775 3.0849959491 3.2210994642 3.1102929191 3.1063264105 3.2255750929 3.1011214333 3.0914949998 3.0925851963 
3.1167862949 3.2255659828 3.2266612854 3.1085726558 3.0900471682 3.0924032574 3.0979598515 3.0232139474 3.0307636744 
3.001285011 3.0085775912 2.9870820121 2.9951255148 3.0086059894 3.0423638795 3.0633304813 3.0430362232 3.1021855168 
3.064750225 3.082159734 3.099144024 3.1091197522 3.1218170718 3.1323542276 3.1438911264 3.1522420689 3.1583782018 
3.1588093917 3.155962082 3.1511161841 3.1434163974 3.1366868926 3.130444294 3.1246997614 3.1186061525 3.1131170556 
3.0956499849 3.0917673458 3.0861996818 3.0783631905 3.0676449389 3.0575416321 3.0488440411 3.0413685466 3.0288400481 
3.0993473576 3.1232402549 3.1382318514 3.1514090431 3.1605087016 3.171816124 3.1833765703 3.189185092 3.2003471601 
3.2128739235 3.2216095855 3.2260852192 3.2273016967 3.2318415661 3.233296531 3.2327488017 3.2330526419 3.1080444993 
3.0894774491 3.0893164612 3.0869897184 3.0819746044 3.0741960411 3.0646037787 3.0552278978 3.0460732808 3.0386941945 
3.0408587872 3.2333030777 3.2332415211 3.1281487161 3.233123873 3.1215211032 3.2318578747 3.0877722823 3.2299490858 
3.1092756431 3.1052953817 3.2326201026 3.100060518 3.0889147655 3.0894167519 3.1158213685 3.2326813412 3.2334154545 
3.0867867957 3.0892738795 3.089355053 3.0972818221 3.0229971672 3.0319504497 3.002764026 3.010566051 2.9880912325 
2.9966711743 3.0101357141 3.0434270852 3.0653431877 3.0438468697 3.1013421539 3.0658389041 3.0838256337 3.1000622815 
3.1105151514 3.1232729702 3.1346006034 3.1464839413 3.1551557398 3.161731334 3.1613840547 3.157433869 3.1510961833 
3.1428249228 3.1359290719 3.1296186664 3.1238525638 3.1177120677 3.112237376 3.0949385737 3.0910388353 3.0855906285 
3.0777729387 3.0671892316 3.0571204059 3.0485706865 3.0409734248 3.0290853265 3.1009972269 3.1252581276 3.140340937 
3.1535930842 3.1627422878 3.1745497721 3.1873530301 3.1947447612 3.2062035182 3.2180251881 3.228567768 3.2337263608 
3.2357837037 3.2410208432 3.2419964179 3.2404944433 3.2403562867 3.0847450622 3.0886721537 3.0880409465 3.0854961353 
3.0808251883 3.073486184 3.0639786343 3.0546993787 3.0459009991 3.0384400585 3.0406936436 3.2403478596 3.2414623491 
3.1273047362 3.2413495334 3.1206693217 3.234856957 3.0875362563 3.2384376419 3.1084208297 3.1044433015 3.2401304214 
3.0993723989 3.0873689843 3.0878745702 3.1149399216 3.2400174854 3.2419648086 3.0891384384 3.0883072169 3.088512544 
3.0967327003 3.0229487147 3.0323710687 3.0029763123 3.0103049807 2.9877516391 2.9966427432 3.0102799329 3.0437402806 
3.06596261 3.0442125243 3.1008496129 3.0663534372 3.0845384859 3.1008138692 3.1116197176 3.1244963368 3.1362750164 
3.1484306379 3.1571618756 3.1644357534 3.1633940557 3.1585654449 3.1510852926 3.1425440114 3.1356088594 3.1292625325 
3.123316248 3.1172336871 3.1117043694 3.0944113992 3.0905251602 3.0851711777 3.0773698096 3.0668783456 3.0567615301 
3.0482970647 3.0405882052 3.0292764433 3.1017291137 3.1262502248 3.1417676818 3.155133184 3.1646019307 3.1764942746 
3.1892199905 3.1973633436 3.2093818814 3.2222118531 3.2335993713 3.2402921154 3.2432879055 3.2490555795 3.2505837937 
3.2492909763 3.2484092134 3.0837388535 3.0880489321 3.087518408 3.0855424234 3.0809469411 3.0737513165 3.0641846766 
3.0550086441 3.0462673349 3.0386955108 3.0410831667 3.2481488597 3.2501500666 3.126823232 3.2503222335 3.1201824407 
3.1707530524 3.0865040141 3.2463136372 3.1078756958 3.1039370418 3.2485759467 3.0987837777 3.0872618533 3.0878297055 
3.1143996184 3.2481448855 3.2515319733 3.0865744305 3.0869722033 3.088186484 3.096483328 3.0226542306 3.0328118268 
3.0032658341 3.01055797 2.9881262774 2.9968272956 3.0104075018 3.0440933597 3.0663625731 3.0444147475 3.1006569358 
3.0665961369 3.0850129698 3.1012354942 3.1123435296 3.1253064194 3.1374824736 3.1496376629 3.1588233669 3.1665084942 
3.1651823808 3.1595207656 3.1512270748 3.1425811349 3.1355706119 3.1292718709 3.1231740165 3.1171163156 3.11154025 
3.0941759434 3.0902922084 3.0850117152 3.0771804193 3.0667784438 3.0565098015 3.0481006231 3.0403075141 3.0295122535 
3.1022688451 3.1269442209 3.1427148023 3.1561957834 3.1658093317 3.1777668215 3.1905391164 3.1993288032 3.2116656647 
3.2248784141 3.2368047615 3.2446584603 3.2491430972 3.2555751715 3.2577018834 3.25719981 3.2564529709 3.0836418493 
3.0862755601 3.08613529 3.0840766381 3.0796322118 3.072707916 3.0634172547 3.0545338334 3.0459496555 3.0382399662 
3.0409989278 3.2564182532 3.2575039529 3.1267533904 3.2576855266 3.1200989053 3.1163676883 3.0843057599 3.2525422325 
3.1076901102 3.1038390418 3.2567293811 3.0985168478 3.0858420336 3.0860985642 3.1142306898 3.2562267478 3.2580162563 
3.0855665611 3.0845469363 3.086704461 3.0964604313 3.0221477816 3.0332131565 3.0035551227 3.0109133465 2.9885933911 
2.9972694064 3.0108213551 3.0446366766 3.0669666938 3.0445167515 3.1005116529 3.0667109393 3.0851446055 3.1015560743 
3.1129343672 3.1259003248 3.1383116096 3.1507084745 3.1598791403 3.1683416542 3.1668495227 3.160574096 3.1516672462 
3.1428491005 3.1357794979 3.129476198 3.1233309936 3.1172378372 3.1116008592 3.0941494065 3.0902768221 3.0850510099 
3.0771788892 3.0668424456 3.0565054703 3.0481197351 3.040269153 3.0298053357 3.1029832262 3.1277107011 3.1436274286 
3.1572060723 3.1668877841 3.1789128161 3.1916291142 3.2008371118 3.2134853714 3.2269088246 3.2390755416 3.2480318252 
3.2532382027 3.2604047754 3.2639822813 3.2635644808 3.2636358156 3.0832409482 3.0841998748 3.0834662781 3.0815002159 
3.0772174615 3.0704884455 3.061416237 3.0527203311 3.0444632123 3.0367884563 3.0398113315 3.2637384302 3.262503789 
3.1269355862 3.264002959 3.1202486239 3.1149402125 3.0837223587 3.256954094 3.1078174939 3.1038597265 3.263413509 
3.098403171 3.0831830281 3.0833269028 3.1142539511 3.2631044554 3.2632214812 3.0851159722 3.0829711336 3.0839834625 
3.096586965 3.0217309252 3.0334962192 3.0037369777 3.0110007427 2.9890114031 2.9977365158 3.0112982173 3.0452147579 
3.0676465991 3.0444971415 3.1008029391 3.0666038625 3.0851036338 3.1016699074 3.1132548335 3.1263046338 3.1388944627 
3.1516998058 3.1612729333 3.1698171026 3.168358006 3.1617762985 3.1523899506 3.1433305923 3.1362086862 3.1298251344 
3.1238148143 3.1175748253 3.1118760133 3.094324994 3.090424045 3.0852192373 3.0773129492 3.0670274155 3.0566549925 
3.0482816616 3.0403853507 3.0300215895 3.103820747 3.1285481286 3.144655665 3.1582744403 3.1680188257 3.1800532686 
3.1927208644 3.2021994085 3.215098886 3.2286153134 3.2408986101 3.250192884 3.2560936282 3.2637259525 3.2674825979 
3.2683971771 3.2687341175 3.0810263242 3.0821436821 3.0812656272 3.0790932838 3.0748943256 3.068319574 3.0592967466 
3.0506831951 3.0427417071 3.035230383 3.0382264935 3.2689509485 3.2662014184 3.1274262033 3.2684331933 3.1206476332 
3.1181464155 3.081864268 3.2600615586 3.1080939164 3.1042657496 3.2684999452 3.0984859031 3.0807716173 3.0809906418 
3.1145281577 3.2684118154 3.2686000057 3.0838633957 3.0808098153 3.0822485146 3.0969176687 3.0216624903 3.0336821117 
3.003794843 3.0108886695 2.9894301742 2.9982002119 3.0117742445 3.046028052 3.068437008 3.0441050692 3.1011158662 
3.0662049746 3.084881058 3.1016882752 3.1134729837 3.126560842 3.1393171403 3.1523733906 3.1627790335 3.1709000628 
3.1697352717 3.1631520477 3.1533973625 3.1440210239 3.1368109529 3.1302997897 3.1243845734 3.117984624 3.1122406119 
3.0946278044 3.0906881599 3.0854740052 3.0775146485 3.0672510943 3.0568343385 3.0484578083 3.0405349935 3.0302202049 
3.1048176297 3.1295218686 3.145637224 3.1593300467 3.1691251076 3.1811745203 3.1938357109 3.203476168 3.2165899398 
3.2301242009 3.2424805517 3.2518741745 3.2580175612 3.2660543026 3.270111238 3.2715519483 3.2722293515 3.0798407976 
3.080398462 3.0794743459 3.0772484373 3.0731447981 3.0667718463 3.0578228033 3.0492914015 3.0415649295 3.0343012287 
3.0370873711 3.2727866492 3.2686384865 3.1279743271 3.2712805281 3.1210710974 3.130614488 3.0802824006 3.2620824994 
3.1084494682 3.1046394168 3.2718437586 3.0988008844 3.0789178294 3.0790886677 3.1148903557 3.2719306495 3.2732568557 
3.0834069546 3.0797526745 3.0805605392 3.0972659778 3.0219526342 3.0337471714 3.0037406553 3.0107263699 2.9898580875 
2.998651533 3.0122831795 3.0471568892 3.0694500067 3.0435989937 3.1014740921 3.0656844179 3.0844530793 3.1015712009 
3.1135481941 3.1266223295 3.1395123283 3.1529013621 3.1636835214 3.1720299019 3.1715839811 3.165023399 3.1548922001 
3.144999977 3.137598267 3.1309461751 3.1250456528 3.1185031687 3.1126967994 3.0949597584 3.0909990111 3.0857682957 
3.0777548786 3.0674609013 3.0570041648 3.0485951943 3.0406678652 3.0302437539 3.1060204644 3.1306234932 3.1467469443 
3.1604980382 3.1702818263 3.1823783133 3.1950221261 3.2047855923 3.218101483 3.2315559154 3.2439575879 3.2533903182 
3.259550112 3.2676819706 3.2718990812 3.2735981019 3.2745554063 3.0792790359 3.0789100703 3.0779276533 3.0759253633 
3.0719923347 3.065908254 3.0570633721 3.0486737351 3.0411313957 3.0341039808 3.0367104335 3.2752161355 3.2704495306 
3.1286436449 3.2732356046 3.1216675891 3.1421835499 3.0792311423 3.2635953805 3.1088796957 3.1050046745 3.2740402693 
3.0991343952 3.0774443597 3.0775217554 3.1153826722 3.274164294 3.2769512352 3.0830774665 3.0786655955 3.0788773258 
3.0977017729 3.0224901023 3.0337742461 3.0036176965 3.010370827 2.9902674597 2.9990866413 3.0127382308 3.0482976137 
3.0705982034 3.0431025535 3.1019435925 3.0651662471 3.083988892 3.101392682 3.1134128233 3.1265916546 3.1395617976 
3.1533858149 3.1646159278 3.1732522941 3.1734915417 3.1674007996 3.1568319015 3.1462152834 3.1384959546 3.1316801999 
3.1257667397 3.1191629224 3.1133037349 3.0953761217 3.0914087103 3.0861144912 3.0780752178 3.0676964323 3.057212882 
3.0487430591 3.0408454134 3.0299867258 3.1074244955 3.1318965427 3.1479834698 3.1618227444 3.1715899242 3.1837207076 
3.1963586443 3.2062177462 3.2197572631 3.2330487927 3.2454372396 3.2549046438 3.2609731331 3.2689924028 3.2734455925 
3.275217577 3.2761486503 3.0767935248 3.0781521534 3.0771617879 3.0753615593 3.0716364873 3.0658845838 3.0570821074 
3.0488289731 3.0414501811 3.0345652245 3.037177385 3.2768748029 3.2719248368 3.1294409443 3.2747747856 3.1223839129 
3.1331886812 3.0780471446 3.2649274351 3.1093444987 3.1054383646 3.275658326 3.0996128478 3.0767476044 3.0769330238 
3.1160370461 3.275767872 3.2776266351 3.0811562918 3.0782798221 3.0782213062 3.09828761 3.0232094368 3.0338391611 
3.0035656547 3.0101019559 2.9908135094 2.999474266 3.0131592984 3.0495805278 3.0719462824 3.0427659735 3.102565468 
3.0647063796 3.0837206666 3.1007031388 3.1126549766 3.1261526354 3.1392351342 3.1537087277 3.1653824454 3.1742779959 
3.175344573 3.169981678 3.1590474819 3.1474378075 3.1392719467 3.1321958463 3.1264204543 3.1198803609 3.1140327197 
3.0959601645 3.0919783073 3.0865626989 3.0785312744 3.0680245384 3.0575243752 3.0489684274 3.0411376905 3.0296398612 
3.1090544251 3.1334049089 3.1493659754 3.163270718 3.1729950357 3.1852047977 3.1978581645 3.2077665539 3.2215526815 
3.2346221283 3.2469967163 3.2563926937 3.2623883201 3.2702480974 3.2748838534 3.2765744769 3.2774888275 3.0755548925 
3.0787721583 3.0778533475 3.0757849965 3.0721970774 3.066532575 3.0577546642 3.0496383706 3.0422527356 3.035494122 
3.0381733146 3.2784560306 3.2732649195 3.130055248 3.2762065582 3.1230431274 3.1133313047 3.0789398625 3.2662273974 
3.1099978079 3.1060606661 3.2770508874 3.1002753533 3.0771036128 3.0776739403 3.116849699 3.277150276 3.2798932388 
3.0798668018 3.0791375353 3.0787860264 3.098989088 3.0238918132 3.0340173904 3.0035003388 3.0102996599 2.9916739088 
2.9998881584 3.0136326408 3.0512224505 3.0732503423 3.0423154648 3.1034471044 3.0640640817 3.0832988567 3.0997618491 
3.1115368095 3.1253166833 3.1383875473 3.1538258315 3.1656990417 3.1751247456 3.1772191538 3.1727338277 3.1613894387 
3.1484451222 3.1397035972 3.1323820329 3.1271542014 3.1208282073 3.1149190741 3.0966164814 3.0925944006 3.0870540076 
3.0790597272 3.0683948126 3.0578910019 3.0492158557 3.0414205335 3.0290629027 3.1104177796 3.1348378084 3.1506452105 
3.1646658392 3.1743519521 3.1865130897 3.1992942642 3.2092765379 3.2232360573 3.2361420604 3.2482998383 3.2580472645 
3.2639452053 3.2716175427 3.276632773 3.2789006669 3.2799079599 3.0794810591 3.0798341628 3.0790401126 3.076404432 
3.0728785836 3.0671286805 3.0585610508 3.0506638205 3.0432025668 3.0365393296 3.0394235476 3.2801090932 3.2746384622 
3.1307253924 3.2780103269 3.1236791169 3.0833244791 3.0810852999 3.2676369282 3.1107171787 3.1067118622 3.2789197552 
3.1010902839 3.0777530739 3.0786107611 3.1178519416 3.2793062285 3.2638319816 3.0830069463 3.0804575478 3.079626912 
3.0995384133 3.0243711476 3.03264372 3.0026280707 3.010569604 2.9919560678 3.0001310149 3.0138773543 3.0515909816 
3.0740179649 3.0411784811 3.1039731007 3.0628434953 3.0822797428 3.0984716845 3.1104024872 3.1242953121 3.1371557819 
3.1538506903 3.1653894975 3.1758860164 3.1792432729 3.1757367785 3.1640372422 3.149495649 3.1401331642 3.1325769408 
3.1274898114 3.1214736069 3.1155549613 3.0971116962 3.0930995747 3.0874786761 3.0794351948 3.0685852051 3.0580434751 
3.0492073572 3.0414688242 3.0280391194 3.1111470901 3.1358376539 3.1514858118 3.1653202689 3.1751190187 3.1874815777 
3.2003808045 3.2104947221 3.2244570463 3.2374449872 3.2501879768 3.2592551112 3.2657688995 3.2736348194 3.2801991781 
3.2818763332 3.2821706249 3.0862411707 3.0804921965 3.0798933297 3.077593327 3.0737786728 3.0678152842 3.0594506855 
3.0517588334 3.0441520582 3.0376413418 3.0406498197 3.284648376 3.277159286 3.1309881026 3.2813082159 3.1240232583 
3.0889548534 3.082465444 3.2693889203 3.1112289032 3.1072389909 3.2820955218 3.1016753262 3.0790174168 3.0797758942 
3.1184759356 3.2819623374 3.0638262857 3.0851110957 3.0811626774 3.0805852012 3.099791273 3.024626332 3.0318321692 
3.0005682312 3.0056973336 2.9917800472 2.9993254095 3.0131359709 3.0501208788 3.0734525243 3.0408423068 3.1037950926 
3.0619892232 3.0819422887 3.0987629008 3.1099099195 3.123941213 3.1362494109 3.1549176088 3.1669731651 3.1784911381 
3.1844816235 3.1803399782 3.168257067 3.1504899195 3.140539407 3.1337832718 3.128257702 3.120509117 3.115507713 
3.0975056928 3.093493 3.087803505 3.0800814033 3.0686692217 3.0578780557 3.0488883306 3.0412450561 3.0261850568 
3.1103088797 3.1355970719 3.1516703283 3.1657771784 3.1757789637 3.1878100012 3.2008682484 3.211895492 3.2264196884 
3.2400098854 3.2532790722 3.2654359169 3.2698037888 3.2774064846 3.2827520193 3.2825562873 3.2860929158 3.0756699578 
3.0821565666 3.0818767574 3.0800769709 3.0757003718 3.0696480761 3.0609772334 3.0533803543 3.0457422905 3.0388770086 
3.0428581111 3.0866630386 3.2806871839 3.1312423483 3.2827282762 3.1239614211 3.0733328479 3.0814581928 3.2729505889 
3.111122742 3.1071802646 3.281964974 3.1021625094 3.0812233258 3.0821716483 3.117749501 3.2803429186 3.0772367133 
3.0781454296 3.0813964976 3.0821147831 3.0997172736 3.0268387815 3.0347483787 3.0052578481 3.010342434 2.9904774868 
2.9990517087 3.0142218362 3.0441921413 3.0695589279 3.0444626439 3.1035445022 3.0666172841 3.0865158026 3.1006781165 
3.1129804798 3.1272118302 3.1395193242 3.1596009099 3.1810649262 3.1860654817 3.1889849065 3.1827490451 3.1663401311 
3.1517184526 3.1410987663 3.1336305918 3.127127744 3.1190705385 3.113568894 3.0967900683 3.0945810639 3.0885172555 
3.0789865368 3.0687669983 3.0573601043 3.0478300165 3.0392914713 3.0237390641 3.1050844879 3.1335047465 3.1555090059 
3.1690600043 3.178268013 3.1965143578 3.2054161294 3.2162079553 3.233729906 3.2465593803 3.2621188184 3.271102826 