# vtk DataFile Version 4.2
vtk output
ASCII
DATASET POLYDATA
POINTS 6632 float
2548.34 -2782.13 5800 2551.87 -2792.73 5800 2580.87 -2794.48 5800 
2605.04 -2782.12 5800 2544.01 -2769.13 5800 2609.88 -2779.65 5800 
2620.31 -2769.12 5800 2539.68 -2756.12 5800 2628.01 -2756.12 5800 
2535.35 -2743.12 5800 2633.88 -2743.12 5800 2527.87 -2730.12 5800 
2638.88 -2732.03 5800 2639.74 -2730.12 5800 2510.97 -2717.12 5800 
2522.88 -2726.08 5800 2645.61 -2717.12 5800 2493.7 -2704.12 5800 
2493.88 -2704.25 5800 2651.48 -2704.12 5800 2476.43 -2691.12 5800 
2659.05 -2691.12 5800 2459.16 -2678.12 5800 2464.88 -2682.42 5800 
2667.89 -2680.53 5800 2669.82 -2678.11 5800 2441.89 -2665.12 5800 
2683.5 -2665.11 5800 2424.62 -2652.12 5800 2435.88 -2660.59 5800 
2696.89 -2652.63 5800 2697.45 -2652.11 5800 2407.35 -2639.12 5800 
2711.39 -2639.11 5800 2390.08 -2626.12 5800 2406.88 -2638.76 5800 
2725.34 -2626.11 5800 2372.81 -2613.12 5800 2377.88 -2616.93 5800 
2725.89 -2625.59 5800 2739.28 -2613.11 5800 2355.54 -2600.12 5800 
2753.23 -2600.1 5800 2338.27 -2587.12 5800 2348.88 -2595.11 5800 
2754.9 -2598.55 5800 2767.17 -2587.1 5800 2321 -2574.12 5800 
2781.12 -2574.1 5800 2303.73 -2561.12 5800 2319.88 -2573.28 5800 
2783.9 -2571.51 5800 2795.06 -2561.1 5800 2286.15 -2548.12 5800 
2290.88 -2551.45 5800 2809.22 -2548.1 5800 2266.74 -2535.12 5800 
2812.9 -2544.94 5800 2825.24 -2535.1 5800 2245.74 -2522.12 5800 
2261.88 -2532.02 5800 2841.54 -2522.1 5800 2224.54 -2509.12 5800 
2232.88 -2514.23 5800 2841.9 -2521.81 5800 2857.84 -2509.09 5800 
2203.34 -2496.12 5800 2203.88 -2496.45 5800 2870.91 -2498.67 5800 
2874.11 -2496.09 5800 2182.14 -2483.12 5800 2890.44 -2483.09 5800 
2160.95 -2470.12 5800 2174.88 -2478.66 5800 2899.91 -2475.54 5800 
2905.7 -2470.09 5800 2139.75 -2457.12 5800 2145.88 -2460.88 5800 
2920 -2457.09 5800 2118.55 -2444.11 5800 2928.91 -2449.28 5800 
2934.49 -2444.09 5800 2097.36 -2431.11 5800 2116.89 -2443.09 5800 
2948.43 -2431.09 5800 2085.22 -2418.11 5800 2087.89 -2424.67 5800 
2957.92 -2422.24 5800 2962.38 -2418.08 5800 2084.26 -2405.11 5800 
2976.32 -2405.08 5800 2084.73 -2392.11 5800 2986.92 -2395.2 5800 
2990.26 -2392.08 5800 2085.2 -2379.11 5800 3004.21 -2379.08 5800 
2085.68 -2366.11 5800 3015.92 -2368.16 5800 3018.15 -2366.08 5800 
2086.15 -2353.11 5800 3032.1 -2353.08 5800 2086.63 -2340.11 5800 
3044.93 -2341.12 5800 3046.04 -2340.07 5800 2087.1 -2327.11 5800 
3059.99 -2327.07 5800 2087.58 -2314.11 5800 3073.93 -2314.07 5800 
3073.93 -2314.07 5800 2087.89 -2305.71 5800 2088.07 -2301.1 5800 
3087.88 -2301.07 5800 2088.58 -2288.1 5800 3101.82 -2288.07 5800 
2089.08 -2275.1 5800 3102.93 -2287.03 5800 3115.76 -2275.07 5800 
2089.58 -2262.1 5800 3129.71 -2262.07 5800 2090.08 -2249.1 5800 
3131.93 -2255.9 5800 3133.3 -2249.06 5800 2090.59 -2236.1 5800 
3134.78 -2236.06 5800 2091.09 -2223.1 5800 3136.27 -2223.06 5800 
2091.59 -2210.1 5800 3137.75 -2210.06 5800 2092.1 -2197.1 5800 
3139.24 -2197.06 5800 2092.6 -2184.1 5800 3140.73 -2184.06 5800 
2093.1 -2171.09 5800 3142.21 -2171.06 5800 2093.61 -2158.09 5800 
3143.7 -2158.06 5800 2094.11 -2145.09 5800 3145.18 -2145.06 5800 
2094.61 -2132.09 5800 3146.67 -2132.06 5800 2095.11 -2119.09 5800 
3148.16 -2119.05 5800 2095.62 -2106.09 5800 3149.64 -2106.05 5800 
2096.12 -2093.09 5800 3151.13 -2093.05 5800 2096.62 -2080.09 5800 
3152.61 -2080.05 5800 2097.13 -2067.09 5800 3154.1 -2067.05 5800 
2096.04 -2054.09 5800 3155.58 -2054.05 5800 2093.42 -2041.08 5800 
3157.07 -2041.05 5800 2090.8 -2028.08 5800 3158.52 -2028.05 5800 
2088.19 -2015.08 5800 3160.01 -2015.05 5800 2085.57 -2002.08 5800 
2087.92 -2013.74 5800 3160.86 -2002.05 5800 2082.95 -1989.08 5800 
3160.96 -2000.7 5800 3161.76 -1989.04 5800 2080.34 -1976.08 5800 
3162.65 -1976.04 5800 2077.72 -1963.08 5800 3163.55 -1963.04 5800 
2075.1 -1950.08 5800 3164.44 -1950.04 5800 2072.48 -1937.08 5800 
3165.33 -1937.04 5800 2069.87 -1924.08 5800 3166.23 -1924.04 5800 
2067.25 -1911.08 5800 3167.12 -1911.04 5800 2064.63 -1898.07 5800 
3168.02 -1898.04 5800 2062.01 -1885.07 5800 3168.91 -1885.04 5800 
2059.4 -1872.07 5800 3169.81 -1872.03 5800 2056.78 -1859.07 5800 
2058.93 -1869.74 5800 3170.7 -1859.03 5800 2054.16 -1846.07 5800 
3171.59 -1846.03 5800 2051.54 -1833.07 5800 3172.49 -1833.03 5800 
2048.93 -1820.07 5800 3173.38 -1820.03 5800 2046.31 -1807.07 5800 
3174.28 -1807.03 5800 2043.69 -1794.07 5800 3175.17 -1794.03 5800 
2041.08 -1781.07 5800 3176.06 -1781.03 5800 2038.46 -1768.07 5800 
3176.96 -1768.03 5800 2035.84 -1755.06 5800 3177.85 -1755.03 5800 
2033.22 -1742.06 5800 3178.75 -1742.02 5800 2030.61 -1729.06 5800 
3179.64 -1729.02 5800 2027.93 -1716.06 5800 2029.94 -1725.81 5800 
3180.54 -1716.02 5800 2025.25 -1703.06 5800 3181.43 -1703.02 5800 
2022.57 -1690.06 5800 3182.32 -1690.02 5800 2022.01 -1677.06 5800 
3183.22 -1677.02 5800 2022.12 -1664.06 5800 3185.23 -1664.02 5800 
2022.54 -1651.06 5800 3187.6 -1651.02 5800 2026.51 -1638.06 5800 
3189.98 -1647.28 5800 3197.87 -1638.02 5800 2029.94 -1626.8 5800 
2030.54 -1625.06 5800 3205.98 -1625.01 5800 2034.45 -1612.05 5800 
3216.78 -1612.01 5800 2038.42 -1599.05 5800 3218.99 -1609.35 5800 
3227.58 -1599.01 5800 2042.38 -1586.05 5800 3238.37 -1586.01 5800 
2046.35 -1573.05 5800 3246.25 -1573.01 5800 2050.32 -1560.05 5800 
3247.99 -1569.02 5800 3250.39 -1560.01 5800 2054.29 -1547.05 5800 
3253.26 -1547.01 5800 2058.26 -1534.05 5800 3254.5 -1534.01 5800 
2058.95 -1531.78 5800 2062.23 -1521.05 5800 3254.9 -1521 5800 
2064.52 -1508.04 5800 3255.3 -1508 5800 2065.72 -1495.04 5800 
3255.71 -1495 5800 2066.91 -1482.04 5800 3256.11 -1482 5800 
2068.1 -1469.04 5800 3256.51 -1469 5800 2069.29 -1456.04 5800 
3256.91 -1456 5800 2070.49 -1443.04 5800 3257.32 -1443 5800 
2071.68 -1430.04 5800 3257.72 -1430 5800 2072.87 -1417.04 5800 
3258.12 -1417 5800 2074.06 -1404.04 5800 3258.52 -1404 5800 
2075.35 -1391.04 5800 3258.93 -1390.99 5800 2076.76 -1378.03 5800 
3259.33 -1377.99 5800 2078.12 -1365.03 5800 3259.73 -1364.99 5800 
2078.47 -1352.03 5800 3260.13 -1351.99 5800 2077.61 -1339.03 5800 
3260.54 -1338.99 5800 2076.85 -1326.03 5800 3260.94 -1325.99 5800 
2076.21 -1313.03 5800 3261.34 -1312.99 5800 2075.68 -1300.03 5800 
3261.74 -1299.99 5800 2075.21 -1287.03 5800 3262.15 -1286.99 5800 
2074.81 -1274.03 5800 3262.55 -1273.99 5800 2074.45 -1261.03 5800 
3262.95 -1260.98 5800 2074.14 -1248.02 5800 3263.35 -1247.98 5800 
2073.45 -1235.02 5800 3263.76 -1234.98 5800 2072.39 -1222.02 5800 
3264.16 -1221.98 5800 2071.33 -1209.02 5800 3264.56 -1208.98 5800 
2070.26 -1196.02 5800 3264.96 -1195.98 5800 2069.2 -1183.02 5800 
3265.43 -1182.98 5800 2068.14 -1170.02 5800 3265.91 -1169.98 5800 
2067.08 -1157.02 5800 3266.38 -1156.98 5800 2066.02 -1144.02 5800 
3266.85 -1143.98 5800 2064.95 -1131.02 5800 3267.31 -1130.97 5800 
2063.89 -1118.01 5800 3267.8 -1117.97 5800 2062.83 -1105.01 5800 
3268.33 -1104.97 5800 2061.74 -1092.01 5800 3268.86 -1091.97 5800 
2058.68 -1079.01 5800 2058.99 -1080.33 5800 3269.56 -1078.97 5800 
2055.71 -1066.01 5800 3270.36 -1065.97 5800 2053.78 -1053.01 5800 
3271.16 -1052.97 5800 2052.75 -1040.01 5800 3271.97 -1039.97 5800 
2054.87 -1027.01 5800 3272.77 -1026.97 5800 2056.99 -1014.01 5800 
3273.57 -1013.97 5800 2058.99 -1001.7 5800 2059.11 -1001.01 5800 
3274.38 -1000.96 5800 2061.23 -988.005 5800 3275.18 -987.963 5800 
2063.34 -975.004 5800 3275.98 -974.962 5800 2065.46 -962.003 5800 
3276.79 -961.961 5800 2067.58 -949.002 5800 3277.04 -957.894 5800 
3277.51 -948.96 5800 2069.7 -936.001 5800 3278.06 -935.959 5800 
2071.82 -923 5800 2547.26 -922.983 5800 2552.02 -926.712 5800 
2581.02 -935.419 5800 2609.1 -922.981 5800 3277.39 -922.958 5800 
2073.94 -909.998 5800 2529.15 -909.983 5800 2610.02 -922.593 5800 
2639.02 -911.023 5800 2651.83 -909.979 5800 3277.04 -921.143 5800 
3274.47 -909.957 5800 2076.06 -896.997 5800 2510.79 -896.982 5800 
2523.02 -905.966 5800 2668.02 -908.364 5800 2697.02 -908.362 5800 
2726.02 -908.359 5800 2746.85 -896.974 5800 3272.11 -896.956 5800 
2078.18 -883.996 5800 2493.24 -883.982 5800 2494.02 -884.589 5800 
2755.03 -891.042 5800 2758.76 -883.973 5800 3269.82 -883.955 5800 
2080.29 -870.995 5800 2476.98 -870.982 5800 2765.62 -870.972 5800 
3267.3 -870.954 5800 2082.41 -857.994 5800 2460.02 -857.981 5800 
2465.02 -861.426 5800 2772.48 -857.97 5800 3264.77 -857.953 5800 
2084.53 -844.993 5800 2444.43 -844.981 5800 2779.35 -844.969 5800 
3262.25 -844.953 5800 2086.65 -831.992 5800 2429.6 -831.98 5800 
2436.02 -838.263 5800 2784.03 -836.095 5800 2786.21 -831.968 5800 
3259.72 -831.952 5800 2088.01 -823.662 5800 2088.77 -818.991 5800 
2417.5 -818.98 5800 2793.07 -818.967 5800 3257.2 -818.951 5800 
2090.84 -805.99 5800 2408.02 -805.979 5800 2799.94 -805.965 5800 
3254.61 -805.95 5800 2092.85 -792.989 5800 2399.07 -792.978 5800 
2407.02 -804.273 5800 2812.35 -792.964 5800 3251.39 -792.949 5800 
2094.88 -779.988 5800 2389.24 -779.978 5800 2813.04 -792.264 5800 
2825.78 -779.963 5800 3248.05 -779.96 5800 3248.05 -779.948 5800 
2096.58 -766.987 5800 2380.41 -766.977 5800 2839.97 -766.961 5800 
3245.02 -766.947 5800 2097.31 -753.986 5800 2371.61 -753.976 5800 
2378.02 -763.089 5800 2842.04 -765.118 5800 2855.03 -753.96 5800 
3242.55 -753.946 5800 2096.06 -740.985 5800 2362.45 -740.976 5800 
2870.17 -740.958 5800 3240.51 -740.945 5800 2094.44 -727.984 5800 
2353.3 -727.975 5800 2871.04 -740.207 5800 2879.28 -727.957 5800 
3238.79 -727.944 5800 2092.83 -714.983 5800 2344.17 -714.974 5800 
2349.03 -721.894 5800 2885.96 -714.956 5800 3237.39 -714.943 5800 
2091.35 -701.982 5800 2335.11 -701.974 5800 2891.14 -701.954 5800 
3237.36 -701.942 5800 2093.36 -688.981 5800 2326.42 -688.973 5800 
2896.31 -688.953 5800 3237.33 -688.941 5800 2095.76 -675.98 5800 
2322.42 -675.972 5800 2900.05 -679.562 5800 2901.54 -675.952 5800 
3237.29 -675.94 5800 2098.29 -662.979 5800 2319.61 -662.971 5800 
2320.03 -665.639 5800 2907.02 -662.951 5800 3237.21 -662.939 5800 
2100.86 -649.978 5800 2317.58 -649.97 5800 2912.67 -649.95 5800 
[...]
POINT_DATA 6632
SCALARS Pressure double
LOOKUP_TABLE default
3.0932710339 3.0932710339 3.0932710339 3.0932710339 3.0932710339 3.0932710339 3.0932710339 3.0932710339 3.0932710339 
3.0932710339 3.0932710339 3.0932710339 3.0932710339 3.0932710339 3.0932710339 3.0932710339 3.0932710339 3.0932710339 
3.0932710339 3.0932710339 3.0932710339 3.0932710339 3.0932710339 3.0932710339 3.0932710339 3.0932710339 3.0932710339 
3.0932710339 3.0932710339 3.0932710339 3.0932710339 3.0932710339 3.0932710339 3.0932710339 3.0932710339 3.0932710339 
3.0932710339 3.0932710339 3.0932710339 3.0932710339 3.0932710339 3.0932710339 3.0932710339 3.0932710339 3.0932710339 
3.0932710339 3.0932710339 3.0932710339 3.0932710339 3.0932710339 3.0932710339 3.0932710339 3.0932710339 3.0932710339 
3.0932710339 3.0932710339 3.0932710339 3.0932710339 3.0932710339 3.0932710339 3.0932710339 3.0932710339 3.0932710339 
3.0932710339 3.0932710339 3.0932710339 3.0932710339 3.0932710339 3.0932710339 3.0932710339 3.0932710339 3.0932710339 
3.0932710339 3.0932710339 3.0932710339 3.0932710339 3.0932710339 3.0932710339 3.0932710339 3.0932710339 3.0932710339 
3.0932710339 3.0932710339 3.0932710339 3.0932710339 3.0932710339 3.0932710339 3.0932710339 3.0932710339 3.0932710339 
3.0932710339 3.0932710339 3.0932710339 3.0932710339 3.0932710339 3.0932710339 3.0932710339 3.0932710339 3.0932710339 
3.0932710339 3.0932710339 3.0932710339 3.0932710339 3.0932710339 3.0932710339 3.0932710339 3.0932710339 3.0932710339 
3.0932710339 3.0932710339 3.0932710339 3.0932710339 3.0932710339 3.0932710339 3.0932710339 3.0932710339 3.0932710339 
3.0932710339 3.0932710339 3.0932710339 3.0932710339 3.0932710339 3.0932710339 3.0932710339 3.0932710339 3.0932710339 
3.0932710339 3.0932710339 3.0932710339 3.0932710339 3.0932710339 3.0932710339 3.0932710339 3.0932710339 3.0932710339 
3.0932710339 3.0932710339 3.0932710339 3.0932710339 3.0932710339 3.0932710339 3.0932710339 3.0932710339 3.0932710339 
3.0932710339 3.0932710339 3.0932710339 3.0932710339 3.0932710339 3.0932710339 3.0932710339 3.0932710339 3.0932710339 
3.0932710339 3.0932710339 3.0932710339 3.0932710339 3.0932710339 3.0932710339 3.0932710339 3.0932710339 3.0932710339 
3.0932710339 3.0932710339 3.0932710339 3.0932710339 3.0932710339 3.0932710339 3.0932710339 3.0932710339 3.0932710339 
3.0932710339 3.0932710339 3.0932710339 3.0932710339 3.0932710339 3.0932710339 3.0932710339 3.0932710339 3.0932710339 
3.0932710339 3.0932710339 3.0932710339 3.0932710339 3.0932710339 3.0932710339 3.0932710339 3.0932710339 3.0932710339 
3.0932710339 3.0932710339 3.0932710339 3.0932710339 3.0932710339 3.0932710339 3.0932710339 3.0932710339 3.0932710339 
3.0932710339 3.0932710339 3.0932710339 3.0932710339 3.0932710339 3.0932710339 3.0932710339 3.0932710339 3.0932710339 
3.0932710339 3.0932710339 3.0932710339 3.0932710339 3.0932710339 3.0932710339 3.0932710339 3.0932710339 3.0932710339 
3.0932710339 3.0932710339 3.0932710339 3.0932710339 3.0932710339 3.0932710339 3.0932710339 3.0932710339 3.0932710339 
3.0932710339 3.0932710339 3.0932710339 3.0932710339 3.0932710339 3.0932710339 3.0932710339 3.0932710339 3.0932710339 
3.0932710339 3.0932710339 3.0932710339 3.0932710339 3.0932710339 3.0932710339 3.0932710339 3.0932710339 3.0932710339 
3.0932710339 3.0932710339 3.0932710339 3.0932710339 3.0932710339 3.0932710339 3.0932710339 3.0932710339 3.0932710339 
3.0932710339 3.0932710339 3.0932710339 3.0932710339 3.0932710339 3.0932710339 3.0932710339 3.0932710339 3.0932710339 
3.0932710339 3.0932710339 3.0932710339 3.0932710339 3.0932710339 3.0932710339 3.0932710339 3.0932710339 3.0932710339 
3.0932710339 3.0932710339 3.0932710339 3.0932710339 3.0932710339 3.0932710339 3.0932710339 3.0932710339 3.0932710339 
3.0932710339 3.0932710339 3.0932710339 3.0932710339 3.0932710339 3.0932710339 3.0932710339 3.0932710339 3.0932710339 
3.0932710339 3.0932710339 3.0932710339 3.0932710339 3.0932710339 3.0932710339 3.0932710339 3.0932710339 3.0932710339 
3.0932710339 3.0932710339 3.0932710339 3.0932710339 3.0932710339 3.0932710339 3.0932710339 3.0932710339 3.0932710339 
3.0932710339 3.0932710339 3.0932710339 3.0932710339 3.0932710339 3.0932710339 3.0932710339 3.0932710339 3.0932710339 
3.0932710339 3.0932710339 3.0932710339 3.0932710339 3.0932710339 3.0932710339 3.0932710339 3.0932710339 3.0932710339 
3.0932710339 3.0932710339 3.0932710339 3.0932710339 3.0932710339 3.0932710339 3.0932710339 3.0932710339 3.0932710339 
3.0932710339 3.0932710339 3.0932710339 3.0932710339 3.1078652246 3.1078652246 3.1078652246 3.1078652246 3.0932710339 
3.0932710339 3.1078652246 3.1078652246 3.1078652246 3.1078652246 3.0932710339 3.0932710339 3.0932710339 3.1078652246 
3.1078652246 3.1078652246 3.1078652246 3.1078652246 3.1078652246 3.0932710339 3.0932710339 3.1078652246 3.1078652246 
3.1078652246 3.1078652246 3.0932710339 3.0932710339 3.1078652246 3.1078652246 3.0932710339 3.0932710339 3.1078652246 
3.1078652246 3.1078652246 3.0932710339 3.0932710339 3.1078652246 3.1078652246 3.0932710339 3.0932710339 3.1078652246 
3.1078652246 3.1078652246 3.1078652246 3.0932710339 3.0932710339 3.0932710339 3.1078652246 3.1078652246 3.0932710339 
3.0932710339 3.1078652246 3.1078652246 3.0932710339 3.0932710339 3.1078652246 3.1078652246 3.1078652246 3.0932710339 
3.0932710339 3.1078652246 3.1078652246 3.1078652246 3.0932710339 3.0932710339 3.0932710339 3.1078652246 3.1078652246 
3.0932710339 3.0932710339 3.1078652246 3.1078652246 3.1078652246 3.1078652246 3.0932710339 3.0932710339 3.1078652246 
3.1078652246 3.0932710339 3.0932710339 3.1078652246 3.1078652246 3.1078652246 3.0932710339 3.0932710339 3.1078652246 
3.1078652246 3.1078652246 3.0932710339 3.0932710339 3.1078652246 3.1078652246 3.0932710339 3.0932710339 3.1078652246 
3.1078652246 3.0932710339 3.0932710339 3.1078652246 3.1078652246 3.1078652246 3.0932710339 3.0932710339 3.1078652246 
3.1078652246 3.1078652246 3.0932710339 3.0932710339 3.1078652246 3.1078652246 3.0932710339 3.0932710339 3.1078652246 
3.1078652246 3.0932710339 3.0932710339 3.1078652246 3.1078652246 3.0932710339 3.0932710339 3.1078652246 3.1078652246 
3.1078652246 3.0932710339 3.0932710339 3.1078652246 3.1078652246 3.0932710339 3.0932710339 3.1078652246 3.1224594153 
3.1224594153 3.1224594153 3.1078652246 3.0932710339 3.0932710339 3.1078652246 3.1224594153 3.1224594153 3.1224594153 
3.1224594153 3.1078652246 3.0932710339 3.0932710339 3.0932710339 3.1078652246 3.1078652246 3.1224594153 3.1224594153 
3.1224594153 3.1224594153 3.1078652246 3.0932710339 3.0932710339 3.1078652246 3.1224594153 3.1224594153 3.1224594153 
3.1224594153 3.1078652246 3.1078652246 3.0932710339 3.0932710339 3.1078652246 3.1224594153 3.1224594153 3.1224594153 
3.1078652246 3.0932710339 3.0932710339 3.0932710339 3.1078652246 3.1224594153 3.1224594153 3.1224594153 3.1078652246 
3.0932710339 3.0932710339 3.1078652246 3.1078652246 3.1224594153 3.1224594153 3.1224594153 3.1078652246 3.0932710339 
3.0786768432 3.0786768432 3.0786768432 3.0786768432 3.0786768432 3.0932710339 3.1078652246 3.1224594153 3.1224594153 
3.1078652246 3.0932710339 3.0932710339 3.0786768432 3.0786768432 3.0786768432 3.0786768432 3.0786768432 3.0786768432 
3.0786768432 3.0786768432 3.0786768432 3.0786768432 3.0786768432 3.0786768432 3.0932710339 3.0932710339 3.1078652246 
3.1224594153 3.1224594153 3.1224594153 3.1224594153 3.1078652246 3.1078652246 3.0932710339 3.0786768432 3.0786768432 
3.0786768432 3.0786768432 3.0786768432 3.0786768432 3.0786768432 3.0786768432 3.0932710339 3.1078652246 3.1224594153 
3.1224594153 3.1078652246 3.0932710339 3.0786768432 3.0786768432 3.0786768432 3.0786768432 3.0786768432 3.0932710339 
3.1078652246 3.1224594153 3.1224594153 3.1224594153 3.1078652246 3.0932710339 3.0786768432 3.0786768432 3.0786768432 
3.0786768432 3.0786768432 3.0786768432 3.0932710339 3.1078652246 3.1224594153 3.1224594153 3.1224594153 3.1078652246 
3.0932710339 3.0786768432 3.0786768432 3.0786768432 3.0786768432 3.0786768432 3.0786768432 3.0932710339 3.1078652246 
3.1224594153 3.1224594153 3.1078652246 3.0932710339 3.0786768432 3.0786768432 3.0786768432 3.0786768432 3.0786768432 
3.0786768432 3.0932710339 3.1078652246 3.1224594153 3.1224594153 3.1224594153 3.1224594153 3.1078652246 3.1078652246 
3.0932710339 3.0786768432 3.0786768432 3.0786768432 3.0786768432 3.0786768432 3.0932710339 3.1078652246 3.1224594153 
3.1224594153 3.1078652246 3.0932710339 3.0786768432 3.0786768432 3.0786768432 3.0786768432 3.0786768432 3.0932710339 
3.1078652246 3.1224594153 3.1224594153 3.1078652246 3.0932710339 3.0786768432 3.0786768432 3.0786768432 3.0786768432 
3.0786768432 3.0786768432 3.0786768432 3.0932710339 3.1078652246 3.1224594153 3.137053606 3.137053606 3.137053606 
3.137053606 3.137053606 3.1224594153 3.1078652246 3.0932710339 3.0786768432 3.0786768432 3.0786768432 3.0786768432 
3.0786768432 3.0932710339 3.1078652246 3.1224594153 3.137053606 3.137053606 3.137053606 3.1224594153 3.1224594153 
3.1078652246 3.0932710339 3.0786768432 3.0786768432 3.0786768432 3.0786768432 3.0786768432 3.0786768432 3.0932710339 
3.1078652246 3.1224594153 3.1224594153 3.137053606 3.137053606 3.137053606 3.137053606 3.1224594153 3.1078652246 
3.1078652246 3.0932710339 3.0786768432 3.0786768432 3.0786768432 3.0786768432 3.0786768432 3.0932710339 3.0932710339 
3.1078652246 3.1078652246 3.1224594153 3.137053606 3.137053606 3.137053606 3.1224594153 3.1078652246 3.0932710339 
3.0786768432 3.0786768432 3.0786768432 3.0786768432 3.0786768432 3.0786768432 3.0932710339 3.1078652246 3.1224594153 
3.137053606 3.137053606 3.137053606 3.137053606 3.1224594153 3.1224594153 3.1078652246 3.0932710339 3.0786768432 
3.0786768432 3.0786768432 3.0786768432 3.0932710339 3.1078652246 3.1224594153 3.137053606 3.137053606 3.1224594153 
3.1078652246 3.0932710339 3.0786768432 3.0786768432 3.0786768432 3.0786768432 3.0786768432 3.0786768432 3.0932710339 
3.1078652246 3.1224594153 3.137053606 3.137053606 3.137053606 3.1224594153 3.1078652246 3.0932710339 3.0786768432 
3.0786768432 3.0786768432 3.0786768432 3.0932710339 3.1078652246 3.1224594153 3.1224594153 3.137053606 3.137053606 
3.1224594153 3.1078652246 3.0932710339 3.0786768432 3.0786768432 3.0786768432 3.0786768432 3.0786768432 3.0786768432 
3.0932710339 3.1078652246 3.1224594153 3.137053606 3.137053606 3.137053606 3.1224594153 3.1078652246 3.0932710339 
3.0786768432 3.0786768432 3.0786768432 3.0786768432 3.0786768432 3.0932710339 3.1078652246 3.1224594153 3.137053606 
3.137053606 3.1224594153 3.1224594153 3.1078652246 3.0932710339 3.0786768432 3.0786768432 3.0786768432 3.0786768432 
3.0932710339 3.1078652246 3.1224594153 3.137053606 3.137053606 3.137053606 3.137053606 3.1224594153 3.1078652246 
3.0932710339 3.0786768432 3.0786768432 3.0786768432 3.0786768432 3.0932710339 3.1078652246 3.1224594153 3.137053606 
3.1516477967 3.1516477967 3.1516477967 3.1516477967 3.137053606 3.1224594153 3.1078652246 3.1078652246 3.0932710339 
3.0786768432 3.0786768432 3.0786768432 3.0786768432 3.0786768432 3.0786768432 3.0932710339 3.1078652246 3.1078652246 
3.1224594153 3.1224594153 3.137053606 3.1516477967 3.1516477967 3.1516477967 3.1516477967 3.1516477967 3.137053606 
3.1224594153 3.1078652246 3.0932710339 3.0786768432 3.0786768432 3.0786768432 3.0786768432 3.0640826525 3.0640826525 
3.0640826525 3.0786768432 3.0932710339 3.1078652246 3.1224594153 3.137053606 3.137053606 3.1516477967 3.1516477967 
3.137053606 3.1224594153 3.1078652246 3.0932710339 3.0786768432 3.0786768432 3.0786768432 3.0786768432 3.0640826525 
3.0640826525 3.0640826525 3.0640826525 3.0640826525 3.0640826525 3.0640826525 3.0786768432 3.0932710339 3.1078652246 
3.1224594153 3.137053606 3.1516477967 3.1516477967 3.1516477967 3.1516477967 3.137053606 3.1224594153 3.1078652246 
3.0932710339 3.0786768432 3.0786768432 3.0786768432 3.0640826525 3.0640826525 3.0640826525 3.0786768432 3.0932710339 
3.1078652246 3.1224594153 3.137053606 3.1516477967 3.1516477967 3.1516477967 3.1516477967 3.137053606 3.1224594153 
3.1078652246 3.0932710339 3.0786768432 3.0786768432 3.0786768432 3.0640826525 3.0640826525 3.0640826525 3.0640826525 
3.0786768432 3.0932710339 3.1078652246 3.1224594153 3.137053606 3.137053606 3.1516477967 3.1516477967 3.137053606 
3.137053606 3.1224594153 3.1078652246 3.0932710339 3.0786768432 3.0786768432 3.0786768432 3.0786768432 3.0640826525 
3.0640826525 3.0786768432 3.0932710339 3.1078652246 3.1224594153 3.1224594153 3.137053606 3.1516477967 3.1516477967 
3.1516477967 3.137053606 3.1224594153 3.1078652246 3.0932710339 3.0786768432 3.0786768432 3.0786768432 3.0640826525 
3.0640826525 3.0640826525 3.0786768432 3.0932710339 3.1078652246 3.1224594153 3.137053606 3.1516477967 3.1516477967 
3.137053606 3.1224594153 3.1078652246 3.0932710339 3.0786768432 3.0786768432 3.0786768432 3.0786768432 3.0640826525 
3.0640826525 3.0786768432 3.0932710339 3.1078652246 3.1224594153 3.137053606 3.137053606 3.1516477967 3.1516477967 
3.1516477967 3.137053606 3.1224594153 3.1078652246 3.0932710339 3.0786768432 3.0786768432 3.0786768432 3.0786768432 
3.0786768432 3.0786768432 3.0786768432 3.0786768432 3.0786768432 3.0786768432 3.0640826525 3.0640826525 3.0786768432 
3.0786768432 3.0932710339 3.1078652246 3.1224594153 3.137053606 3.1516477967 3.1516477967 3.137053606 3.1224594153 
3.1078652246 3.1078652246 3.0932710339 3.0786768432 3.0786768432 3.0786768432 3.0786768432 3.0640826525 3.0640826525 
3.0494884618 3.0494884618 3.0494884618 3.0494884618 3.0494884618 3.0494884618 3.0640826525 3.0640826525 3.0786768432 
3.0932710339 3.1078652246 3.1224594153 3.137053606 3.1516477967 3.1516477967 3.1516477967 3.137053606 3.1224594153 
3.1078652246 3.0932710339 3.0786768432 3.0786768432 3.0786768432 3.0786768432 3.0640826525 3.0494884618 3.0494884618 
3.0494884618 3.0640826525 3.0786768432 3.0932710339 3.1078652246 3.1078652246 3.1224594153 3.1224594153 3.137053606 
3.1516477967 3.1662419875 3.1662419875 3.1662419875 3.1662419875 3.1662419875 3.1662419875 3.1516477967 3.137053606 
3.1224594153 3.1078652246 3.0932710339 3.0932710339 3.0786768432 3.0640826525 3.0640826525 3.0640826525 3.0640826525 
3.0640826525 3.0786768432 3.0786768432 3.0786768432 3.0640826525 3.0494884618 3.0494884618 3.0494884618 3.0640826525 
3.0786768432 3.0932710339 3.0932710339 3.1078652246 3.1224594153 3.137053606 3.137053606 3.1516477967 3.1662419875 
3.1662419875 3.1662419875 3.1516477967 3.137053606 3.1224594153 3.1078652246 3.0932710339 3.0786768432 3.0786768432 
3.0640826525 3.0640826525 3.0786768432 3.0786768432 3.0640826525 3.0494884618 3.0494884618 3.0640826525 3.0786768432 
3.0932710339 3.1078652246 3.1224594153 3.137053606 3.1516477967 3.1662419875 3.1662419875 3.1516477967 3.137053606 
3.1224594153 3.1078652246 3.0932710339 3.0786768432 3.0640826525 3.0640826525 3.0640826525 3.0640826525 3.0786768432 
3.0786768432 3.0786768432 3.0786768432 3.0640826525 3.0494884618 3.0348942711 3.0348942711 3.0348942711 3.0348942711 
3.0348942711 3.0494884618 3.0494884618 3.0640826525 3.0786768432 3.0932710339 3.1078652246 3.1224594153 3.137053606 
3.1516477967 3.1516477967 2.9473291268 2.9473291268 2.9619233175 2.9619233175 2.9765175082 2.9765175082 2.991111699 
2.991111699 3.0057058897 3.0057058897 3.0203000804 3.0203000804 3.0348942711 3.0348942711 3.0494884618 3.0494884618 
3.0640826525 3.0640826525 3.0786768432 3.0786768432 3.0932710339 3.0932710339 3.1078652246 3.1078652246 3.1224594153 
3.1224594153 3.137053606 3.137053606 3.1516477967 3.1516477967 2.9473291268 2.9619233175 2.9765175082 2.991111699 
3.0057058897 3.0203000804 3.0348942711 3.0494884618 3.0640826525 3.0786768432 3.0932710339 3.1078652246 3.1224594153 
3.137053606 3.1516477967 2.9473291268 2.9619233175 2.9765175082 2.991111699 3.0057058897 3.0203000804 3.0348942711 
3.0494884618 3.0640826525 3.0786768432 3.0932710339 3.1078652246 3.1224594153 3.137053606 3.1516477967 3.1662419875 
2.9473291268 2.9619233175 2.9765175082 2.991111699 3.0057058897 3.0203000804 3.0348942711 3.0494884618 3.0640826525 
3.0786768432 3.0932710339 3.1078652246 3.1224594153 3.137053606 3.1516477967 3.1662419875 2.9473291268 2.9619233175 
2.9765175082 2.991111699 3.0057058897 3.0203000804 3.0348942711 3.0494884618 3.0640826525 3.0786768432 3.0932710339 
3.1078652246 3.1224594153 3.137053606 3.1516477967 3.1662419875 2.9473291268 2.9619233175 2.9765175082 2.991111699 
3.0057058897 3.0203000804 3.0348942711 3.0494884618 3.0640826525 3.0786768432 3.0932710339 3.1078652246 3.1224594153 
3.137053606 3.1516477967 3.1662419875 2.9473291268 2.9619233175 2.9765175082 2.991111699 3.0057058897 3.0203000804 
3.0348942711 3.0494884618 3.0640826525 3.0786768432 3.0932710339 3.1078652246 3.1224594153 3.137053606 3.1516477967 
3.1662419875 2.9473291268 2.9619233175 2.9765175082 2.991111699 3.0057058897 3.0203000804 3.0348942711 3.0494884618 
3.0640826525 3.0786768432 3.0932710339 3.1078652246 3.1224594153 3.137053606 3.1516477967 2.9473291268 2.9619233175 
2.9765175082 2.991111699 3.0057058897 3.0203000804 3.0348942711 3.0494884618 3.0640826525 3.0786768432 3.0932710339 
3.1078652246 3.1224594153 3.137053606 3.1516477967 2.9473291268 2.9619233175 2.9765175082 2.991111699 3.0057058897 
3.0203000804 3.0348942711 3.0494884618 3.0640826525 3.0786768432 3.0932710339 3.1078652246 3.1224594153 3.137053606 
3.1516477967 2.9473291268 2.9619233175 2.9765175082 2.991111699 3.0057058897 3.0203000804 3.0348942711 3.0494884618 
3.0640826525 3.0786768432 3.0932710339 3.1078652246 3.1224594153 3.137053606 3.1516477967 2.9473291268 2.9619233175 
2.9765175082 2.991111699 3.0057058897 3.0203000804 3.0348942711 3.0494884618 3.0640826525 3.0786768432 3.0932710339 
3.1078652246 3.1224594153 3.137053606 2.9473291268 2.9619233175 2.9765175082 2.991111699 3.0057058897 3.0203000804 
3.0348942711 3.0494884618 3.0640826525 3.0786768432 3.0932710339 3.1078652246 3.1224594153 3.137053606 2.9473291268 
2.9619233175 2.9765175082 2.991111699 3.0057058897 3.0203000804 3.0348942711 3.0494884618 3.0640826525 3.0786768432 
3.0932710339 3.1078652246 3.1224594153 3.137053606 2.9473291268 2.9619233175 2.9765175082 2.991111699 3.0057058897 
3.0203000804 3.0348942711 3.0494884618 3.0640826525 3.0786768432 3.0932710339 3.1078652246 3.1224594153 3.137053606 
3.1224594153 3.1078652246 3.0932710339 3.0786768432 3.0640826525 3.0640826525 3.0640826525 3.0786768432 3.0786768432 
3.0786768432 3.0640826525 3.0494884618 3.0348942711 3.0348942711 3.0494884618 3.0640826525 3.0786768432 3.0932710339 
3.1078652246 3.1224594153 3.1224594153 2.9473291268 2.9473291268 2.9619233175 2.9619233175 2.9765175082 2.9765175082 
2.991111699 2.991111699 3.0057058897 3.0057058897 3.0203000804 3.0203000804 3.0348942711 3.0348942711 3.0494884618 
3.0494884618 3.0640826525 3.0640826525 3.0786768432 3.0786768432 3.0932710339 3.0932710339 3.1078652246 3.1078652246 
3.1224594153 3.1224594153 2.9473291268 2.9619233175 2.9765175082 2.991111699 3.0057058897 3.0203000804 3.0348942711 
3.0494884618 3.0640826525 3.0786768432 3.0932710339 3.1078652246 3.1224594153 3.137053606 2.9473291268 2.9619233175 
2.9765175082 2.991111699 3.0057058897 3.0203000804 3.0348942711 3.0494884618 3.0640826525 3.0786768432 3.0932710339 
3.1078652246 3.1224594153 3.137053606 3.1516477967 2.9473291268 2.9619233175 2.9765175082 2.991111699 3.0057058897 
3.0203000804 3.0348942711 3.0494884618 3.0640826525 3.0786768432 3.0932710339 3.1078652246 3.1224594153 3.137053606 
3.1516477967 2.9473291268 2.9619233175 2.9765175082 2.991111699 3.0057058897 3.0203000804 3.0348942711 3.0494884618 
3.0640826525 3.0786768432 3.0932710339 3.1078652246 3.1224594153 2.9473291268 2.9619233175 2.9765175082 2.991111699 
3.0057058897 3.0203000804 3.0348942711 3.0494884618 3.0640826525 3.0786768432 3.0932710339 3.1078652246 3.1224594153 
2.9473291268 2.9619233175 2.9765175082 2.991111699 3.0057058897 3.0203000804 3.0348942711 3.0494884618 3.0640826525 
3.0786768432 3.0932710339 3.1078652246 3.1224594153 2.9473291268 2.9619233175 2.9765175082 2.991111699 3.0057058897 