# vtk DataFile Version 4.2
vtk output
ASCII
DATASET POLYDATA
POINTS 7392 float
1586.54 -3043.14 0 1590.86 -3049.89 0 1627.86 -3059.2 0 
1660.96 -3043.13 0 1575.65 -3026.14 0 1664.87 -3041.24 0 
1695.99 -3026.13 0 1564.77 -3009.13 0 1701.87 -3023.28 0 
1731.01 -3009.13 0 1553.89 -2992.13 0 1738.87 -3005.32 0 
1766.04 -2992.13 0 1543 -2975.13 0 1553.87 -2992.1 0 
1775.87 -2987.35 0 1804.76 -2975.13 0 1532.12 -2958.13 0 
1812.87 -2973.12 0 1849.88 -2968.2 0 1886.88 -2963.29 0 
1923.88 -2958.37 0 1925.74 -2958.12 0 1521.24 -2941.13 0 
1960.88 -2953.45 0 1997.88 -2948.54 0 2034.88 -2943.62 0 
2053.7 -2941.12 0 1510.35 -2924.13 0 1516.87 -2934.31 0 
2071.88 -2938.7 0 2108.88 -2933.78 0 2145.89 -2928.87 0 
2181.65 -2924.11 0 1484.23 -2907.13 0 2182.89 -2923.95 0 
2219.89 -2919.03 0 2251.61 -2907.11 0 1438.5 -2890.13 0 
1442.87 -2891.76 0 1479.87 -2905.51 0 2256.89 -2900.75 0 
2258.94 -2890.11 0 1392.77 -2873.13 0 1405.87 -2878 0 
2262.21 -2873.11 0 1347.04 -2856.13 0 1368.87 -2864.25 0 
2265.48 -2856.11 0 1301.31 -2839.13 0 1331.87 -2850.49 0 
2268.74 -2839.11 0 1255.58 -2822.13 0 1257.87 -2822.98 0 
1294.87 -2836.74 0 2272.01 -2822.1 0 1209.84 -2805.13 0 
1220.87 -2809.23 0 2275.28 -2805.1 0 1164.11 -2788.13 0 
1183.87 -2795.48 0 2278.55 -2788.1 0 1118.38 -2771.13 0 
1146.87 -2781.72 0 2281.82 -2771.1 0 1072.71 -2754.13 0 
1072.87 -2754.21 0 1109.87 -2767.97 0 2285.09 -2754.1 0 
1044.32 -2737.13 0 2288.36 -2737.1 0 1020.31 -2720.13 0 
1035.87 -2731.14 0 2291.63 -2720.1 0 996.281 -2703.13 0 
998.868 -2704.96 0 2293.9 -2708.28 0 2294.9 -2703.1 0 
972.252 -2686.13 0 2298.17 -2686.1 0 957.378 -2669.13 0 
961.868 -2678.79 0 2301.44 -2669.09 0 949.63 -2652.13 0 
2304.71 -2652.09 0 942.078 -2635.13 0 2307.98 -2635.09 0 
934.714 -2618.13 0 2311.25 -2618.09 0 927.532 -2601.13 0 
2314.52 -2601.09 0 920.933 -2584.13 0 924.872 -2594.72 0 
2317.79 -2584.09 0 914.613 -2567.13 0 2321.05 -2567.09 0 
908.293 -2550.13 0 2324.32 -2550.09 0 901.973 -2533.12 0 
2327.59 -2533.09 0 895.653 -2516.12 0 2330.86 -2516.08 0 
889.333 -2499.12 0 2330.92 -2515.81 0 2334.13 -2499.08 0 
883.013 -2482.12 0 887.877 -2495.21 0 2337.4 -2482.08 0 
876.693 -2465.12 0 2340.67 -2465.08 0 870.372 -2448.12 0 
2343.94 -2448.08 0 864.052 -2431.12 0 2347.21 -2431.08 0 
857.732 -2414.12 0 2350.48 -2414.08 0 851.412 -2397.12 0 
2353.75 -2397.08 0 845.092 -2380.12 0 850.882 -2395.69 0 
2357.02 -2380.08 0 838.772 -2363.12 0 2360.29 -2363.08 0 
832.452 -2346.12 0 2363.56 -2346.07 0 826.131 -2329.11 0 
2366.83 -2329.07 0 819.811 -2312.11 0 2367.93 -2323.35 0 
2370.1 -2312.07 0 813.491 -2295.11 0 813.887 -2296.18 0 
2373.36 -2295.07 0 807.171 -2278.11 0 2376.63 -2278.07 0 
800.851 -2261.11 0 2379.9 -2261.07 0 794.531 -2244.11 0 
2383.17 -2244.07 0 788.211 -2227.11 0 2391.3 -2227.07 0 
781.89 -2210.11 0 2403.67 -2210.06 0 775.57 -2193.11 0 
776.892 -2196.66 0 2404.94 -2208.33 0 2416.04 -2193.06 0 
769.25 -2176.11 0 2428.41 -2176.06 0 762.93 -2159.11 0 
2440.78 -2159.06 0 758.482 -2142.11 0 2441.94 -2157.47 0 
2453.15 -2142.06 0 756.083 -2125.1 0 2465.52 -2125.06 0 
753.825 -2108.1 0 2477.89 -2108.06 0 751.567 -2091.1 0 
2478.94 -2106.6 0 2490.26 -2091.06 0 749.309 -2074.1 0 
2500.9 -2074.05 0 747.051 -2057.1 0 2503.42 -2057.05 0 
744.793 -2040.1 0 2504.87 -2040.05 0 742.535 -2023.1 0 
2504.85 -2023.05 0 740.277 -2006.1 0 2503.77 -2006.05 0 
738.019 -1989.1 0 739.902 -2003.27 0 2502.7 -1989.05 0 
735.761 -1972.1 0 2501.62 -1972.05 0 733.503 -1955.1 0 
2500.54 -1955.05 0 731.246 -1938.09 0 2499.47 -1938.05 0 
728.988 -1921.09 0 2498.39 -1921.05 0 726.73 -1904.09 0 
2497.31 -1904.04 0 724.472 -1887.09 0 2496.24 -1887.04 0 
722.214 -1870.09 0 2495.16 -1870.04 0 719.956 -1853.09 0 
2494.08 -1853.04 0 717.698 -1836.09 0 2493 -1836.04 0 
715.44 -1819.09 0 2491.93 -1819.04 0 713.182 -1802.09 0 
2490.85 -1802.04 0 710.924 -1785.09 0 2489.77 -1785.04 0 
708.666 -1768.08 0 2488.7 -1768.04 0 706.146 -1751.08 0 
2487.62 -1751.04 0 703.901 -1734.08 0 2486.54 -1734.03 0 
701.982 -1717.08 0 702.918 -1724.8 0 2485.46 -1717.03 0 
696.124 -1700.08 0 2484.39 -1700.03 0 690.67 -1683.08 0 
2483.31 -1683.03 0 685.881 -1666.08 0 2482.23 -1666.03 0 
682.371 -1649.08 0 2481.16 -1649.03 0 679.543 -1632.08 0 
2480.08 -1632.03 0 -444.107 -1616.68 0 -470.893 -1615.11 0 
-439.082 -1615.11 0 675.868 -1615.08 0 2479 -1615.03 0 
-481.108 -1614.56 0 -513.272 -1598.11 0 -407.105 -1605.12 0 
-384.666 -1598.1 0 672.193 -1598.08 0 2478.97 -1614.55 0 
2477.94 -1598.03 0 -518.108 -1595.63 0 -546.498 -1581.11 0 
-370.104 -1593.55 0 -333.102 -1581.99 0 -330.25 -1581.1 0 
668.518 -1581.07 0 2477.94 -1581.03 0 -555.108 -1576.7 0 
-579.724 -1564.11 0 -296.1 -1570.43 0 -275.833 -1564.1 0 
664.741 -1564.07 0 665.926 -1569.08 0 2478.97 -1564.03 0 
-592.108 -1557.77 0 -612.951 -1547.11 0 -259.099 -1558.87 0 
-222.097 -1547.31 0 -221.417 -1547.1 0 661.125 -1547.07 0 
2478.98 -1563.91 0 2479.99 -1547.02 0 -629.107 -1538.84 0 
-646.177 -1530.11 0 -185.095 -1535.75 0 -167.001 -1530.09 0 
657.493 -1530.07 0 2481.02 -1530.02 0 -666.107 -1519.91 0 
-679.403 -1513.11 0 -148.094 -1524.19 0 -112.585 -1513.09 0 
653.818 -1513.07 0 2482.04 -1513.02 0 -703.107 -1500.98 0 
-712.63 -1496.11 0 -111.092 -1512.63 0 -74.0903 -1500.67 0 
-69.4179 -1496.09 0 650.143 -1496.07 0 2483.07 -1496.02 0 
-740.107 -1482.05 0 -743.58 -1479.11 0 -53.1016 -1479.09 0 
646.468 -1479.07 0 2484.1 -1479.02 0 -756.894 -1462.11 0 
-37.0873 -1466.96 0 -33.8932 -1462.09 0 642.793 -1462.07 0 
1461.35 -1462.05 0 1479.95 -1462.54 0 1516.95 -1463.52 0 
1553.96 -1464.5 0 1557.98 -1462.04 0 2485.12 -1462.02 0 
-768.726 -1445.11 0 -21.8109 -1445.09 0 639.118 -1445.07 0 
1321.05 -1445.05 0 1331.95 -1449.75 0 1368.95 -1459.6 0 
1405.95 -1460.58 0 1442.95 -1461.56 0 1577.32 -1445.04 0 
2486.15 -1445.02 0 -777.105 -1433.07 0 -780.558 -1428.11 0 
-9.50985 -1428.08 0 635.443 -1428.07 0 1281.62 -1428.05 0 
1294.95 -1433.8 0 1590.96 -1432.47 0 1595.76 -1428.04 0 
2487.17 -1428.02 0 -792.39 -1411.1 0 -0.0832337 -1415.06 0 
2.79113 -1411.08 0 631.768 -1411.07 0 1244.88 -1411.05 0 
1257.95 -1417.85 0 1614.21 -1411.04 0 2488.2 -1411.02 0 
-804.222 -1394.1 0 15.0921 -1394.08 0 628.093 -1394.06 0 
628.935 -1397.96 0 1214.42 -1394.05 0 1220.95 -1400.65 0 
1627.96 -1398.36 0 1632.66 -1394.04 0 2489.22 -1394.01 0 
-814.103 -1379.91 0 -816.054 -1377.1 0 27.3931 -1377.08 0 
624.418 -1377.06 0 1198.73 -1377.05 0 1651.1 -1377.04 0 
2490.25 -1377.01 0 -827.886 -1360.1 0 36.9208 -1363.91 0 
39.6941 -1360.08 0 620.743 -1360.06 0 1180.78 -1360.05 0 
1183.95 -1363.25 0 1664.96 -1364.26 0 1669.55 -1360.03 0 
2491.27 -1360.01 0 -839.718 -1343.1 0 51.9951 -1343.08 0 
617.068 -1343.06 0 1163.97 -1343.05 0 1687.99 -1343.03 0 
2492.3 -1343.01 0 -851.101 -1326.75 0 -851.55 -1326.1 0 
64.2961 -1326.08 0 613.393 -1326.06 0 1147.16 -1326.05 0 
1701.97 -1330.15 0 1706.96 -1326.03 0 2492.74 -1326.01 0 
-863.382 -1309.1 0 73.9248 -1312.77 0 76.5972 -1309.07 0 
607.86 -1309.06 0 1122.41 -1309.05 0 1146.95 -1325.87 0 
1727.21 -1309.03 0 2491.73 -1309.01 0 -875.214 -1292.1 0 
88.8981 -1292.07 0 598.273 -1292.06 0 1097.51 -1292.05 0 
1109.95 -1300.54 0 1738.97 -1297.17 0 1741.76 -1292.03 0 
2490.96 -1292.01 0 -887.045 -1275.1 0 101.199 -1275.07 0 
589.006 -1275.06 0 591.941 -1280.83 0 1072.61 -1275.05 0 
1072.95 -1275.28 0 1748.51 -1275.03 0 2488.66 -1275.01 0 
-888.099 -1273.59 0 -898.877 -1258.1 0 110.929 -1261.62 0 
113.5 -1258.07 0 581.472 -1258.06 0 1047.7 -1258.05 0 
1756.75 -1258.03 0 2485.17 -1258.01 0 -910.709 -1241.1 0 
125.801 -1241.07 0 575.427 -1241.06 0 1022.8 -1241.05 0 
1035.95 -1250.03 0 1768.24 -1241.03 0 2481.68 -1241.01 0 
-922.541 -1224.1 0 138.102 -1224.07 0 571.5 -1224.06 0 
998.338 -1224.05 0 998.955 -1224.77 0 1775.98 -1229.57 0 
1779.73 -1224.02 0 2478.99 -1227.94 0 2478.19 -1224.01 0 
-925.097 -1220.43 0 -934.373 -1207.1 0 145.556 -1207.07 0 
567.573 -1207.06 0 983.795 -1207.04 0 1791.22 -1207.02 0 
2474.7 -1207 0 -946.205 -1190.1 0 147.934 -1192.84 0 
148.235 -1190.07 0 563.646 -1190.05 0 969.177 -1190.04 0 
1802.7 -1190.02 0 2471.52 -1190 0 -958.037 -1173.09 0 
150.079 -1173.06 0 559.719 -1173.05 0 956.081 -1173.04 0 
961.956 -1181.68 0 1812.98 -1174.82 0 1814.19 -1173.02 0 
2469.11 -1173 0 -962.095 -1167.26 0 -969.869 -1156.09 0 
151.922 -1156.06 0 555.792 -1156.05 0 944.547 -1156.04 0 
1825.68 -1156.02 0 2468.78 -1156 0 -981.701 -1139.09 0 
153.766 -1139.06 0 551.831 -1139.05 0 554.947 -1152.4 0 
934.109 -1139.04 0 1837.17 -1139.02 0 2468.44 -1139 0 
-994.29 -1122.09 0 155.61 -1122.06 0 547.866 -1122.05 0 
924.456 -1122.04 0 924.959 -1122.98 0 1848.66 -1122.02 0 
2468.13 -1122 0 -999.093 -1117.84 0 -1013.53 -1105.09 0 
157.453 -1105.06 0 543.907 -1105.05 0 915.366 -1105.04 0 
1849.98 -1120.06 0 1860.15 -1105.01 0 2467.84 -1105 0 
-1025.09 -1088.09 0 159.297 -1088.06 0 539.954 -1088.05 0 
906.277 -1088.04 0 1870.6 -1088.01 0 2467.56 -1088 0 
-1030.17 -1071.09 0 161.203 -1071.06 0 536.005 -1071.05 0 
897.188 -1071.04 0 1879.18 -1071.01 0 2467.28 -1071 0 
-1032.85 -1054.09 0 167.987 -1054.06 0 532.063 -1054.05 0 
885.878 -1054.04 0 887.962 -1057.33 0 1886.58 -1054.01 0 
2467 -1054 0 -1035.14 -1037.09 0 174.83 -1037.06 0 
528.126 -1037.05 0 871.356 -1037.04 0 1886.99 -1052.99 0 
1892.97 -1037.01 0 2466.72 -1036.99 0 -1036.09 -1030.06 0 
-1037.6 -1020.09 0 181.672 -1020.06 0 524.195 -1020.05 0 
856.773 -1020.04 0 1899.34 -1020.01 0 2466.44 -1019.99 0 
-1040.01 -1003.09 0 184.945 -1011.92 0 188.515 -1003.05 0 
520.269 -1003.04 0 842.19 -1003.04 0 850.963 -1013.26 0 
1905.71 -1003.01 0 2466.17 -1002.99 0 -1042.22 -986.086 0 
195.358 -986.053 0 516.314 -986.044 0 517.956 -993.016 0 
827.607 -986.036 0 1912.08 -986.006 0 2465.91 -985.991 0 
-1044.31 -969.085 0 202.201 -969.052 0 512.794 -969.043 0 
813.024 -969.035 0 813.965 -970.132 0 1918.45 -969.005 0 
2465.73 -968.99 0 -1046.6 -952.084 0 209.044 -952.05 0 
508.292 -952.042 0 798.996 -952.034 0 1924 -954.204 0 
1924.82 -952.004 0 2464.13 -951.989 0 -1048.9 -935.083 0 
215.887 -935.049 0 503.807 -935.041 0 786.181 -935.034 0 
[...]
POINT_DATA 7392
SCALARS Pressure double
LOOKUP_TABLE default
3.0932710339 3.0932710339 3.0932710339 3.0932710339 3.0932710339 3.0932710339 3.0932710339 3.0932710339 3.0932710339 
3.0932710339 3.0932710339 3.0932710339 3.0932710339 3.0932710339 3.0932710339 3.0932710339 3.0932710339 3.0932710339 
3.0932710339 3.0932710339 3.0932710339 3.0932710339 3.0932710339 3.0932710339 3.0932710339 3.0932710339 3.0932710339 
3.0932710339 3.0932710339 3.0932710339 3.0932710339 3.0932710339 3.0932710339 3.0932710339 3.0932710339 3.0932710339 
3.0932710339 3.0932710339 3.0932710339 3.0932710339 3.0932710339 3.0932710339 3.0932710339 3.0932710339 3.0932710339 
3.0932710339 3.0932710339 3.0932710339 3.0932710339 3.0932710339 3.0932710339 3.0932710339 3.0932710339 3.0932710339 
3.0932710339 3.0932710339 3.0932710339 3.0932710339 3.0932710339 3.0932710339 3.0932710339 3.0932710339 3.0932710339 
3.0932710339 3.0932710339 3.0932710339 3.0932710339 3.0932710339 3.0932710339 3.0932710339 3.0932710339 3.0932710339 
3.0932710339 3.0932710339 3.0932710339 3.0932710339 3.0932710339 3.0932710339 3.0932710339 3.0932710339 3.0932710339 
3.0932710339 3.0932710339 3.0932710339 3.0932710339 3.0932710339 3.0932710339 3.0932710339 3.0932710339 3.0932710339 
3.0932710339 3.0932710339 3.0932710339 3.0932710339 3.0932710339 3.0932710339 3.0932710339 3.0932710339 3.0932710339 
3.0932710339 3.0932710339 3.0932710339 3.0932710339 3.0932710339 3.0932710339 3.0932710339 3.0932710339 3.0932710339 
3.0932710339 3.0932710339 3.0932710339 3.0932710339 3.0932710339 3.0932710339 3.0932710339 3.0932710339 3.0932710339 
3.0932710339 3.0932710339 3.0932710339 3.0932710339 3.0932710339 3.0932710339 3.0932710339 3.0932710339 3.0932710339 
3.0932710339 3.0932710339 3.0932710339 3.0932710339 3.0932710339 3.0932710339 3.0932710339 3.0932710339 3.0932710339 
3.0932710339 3.0932710339 3.0932710339 3.0932710339 3.0932710339 3.0932710339 3.0932710339 3.0932710339 3.0932710339 
3.0932710339 3.0932710339 3.0932710339 3.0932710339 3.0932710339 3.0932710339 3.0932710339 3.0932710339 3.0932710339 
3.0932710339 3.0932710339 3.0932710339 3.0932710339 3.0932710339 3.0932710339 3.0932710339 3.0932710339 3.0932710339 
3.0932710339 3.0932710339 3.0932710339 3.0932710339 3.0932710339 3.0932710339 3.0932710339 3.0932710339 3.0932710339 
3.0932710339 3.0932710339 3.0932710339 3.0932710339 3.0932710339 3.0932710339 3.0932710339 3.0932710339 3.0932710339 
3.0932710339 3.0932710339 3.0932710339 3.0932710339 3.0932710339 3.0932710339 3.0932710339 3.0932710339 3.0932710339 
3.0932710339 3.0932710339 3.0932710339 3.0932710339 3.0932710339 3.0932710339 3.0932710339 3.0932710339 3.0932710339 
3.0932710339 3.0932710339 3.0932710339 3.0932710339 3.0932710339 3.0932710339 3.0932710339 3.0932710339 3.0932710339 
3.0932710339 3.0932710339 3.0932710339 3.0932710339 3.0932710339 3.0932710339 3.0932710339 3.0932710339 3.0932710339 
3.0932710339 3.0786768432 3.0786768432 3.0786768432 3.0932710339 3.0932710339 3.0786768432 3.0786768432 3.0786768432 
3.0786768432 3.0932710339 3.0932710339 3.0932710339 3.0786768432 3.0786768432 3.0786768432 3.0786768432 3.0786768432 
3.0932710339 3.0932710339 3.0786768432 3.0786768432 3.0786768432 3.0786768432 3.0932710339 3.0932710339 3.0932710339 
3.0786768432 3.0786768432 3.0786768432 3.0786768432 3.0786768432 3.0932710339 3.0932710339 3.0932710339 3.0786768432 
3.0786768432 3.0786768432 3.0786768432 3.0932710339 3.0932710339 3.0786768432 3.0786768432 3.0786768432 3.0786768432 
3.0932710339 3.0932710339 3.0786768432 3.0786768432 3.0786768432 3.0786768432 3.0786768432 3.0932710339 3.0932710339 
3.0786768432 3.0786768432 3.0786768432 3.0932710339 3.0932710339 3.0786768432 3.0786768432 3.0786768432 3.0932710339 
3.1078652246 3.1078652246 3.1078652246 3.1078652246 3.1078652246 3.0932710339 3.0786768432 3.0786768432 3.0932710339 
3.1078652246 3.1078652246 3.1078652246 3.1078652246 3.1078652246 3.1078652246 3.0932710339 3.0786768432 3.0786768432 
3.0786768432 3.0932710339 3.1078652246 3.1078652246 3.1078652246 3.1078652246 3.0932710339 3.0786768432 3.0786768432 
3.0786768432 3.0932710339 3.1078652246 3.1078652246 3.1078652246 3.0932710339 3.0786768432 3.0786768432 3.0932710339 
3.0932710339 3.1078652246 3.1078652246 3.1078652246 3.1078652246 3.0932710339 3.0786768432 3.0786768432 3.0786768432 
3.0932710339 3.1078652246 3.1078652246 3.0932710339 3.0786768432 3.0786768432 3.0786768432 3.0932710339 3.1078652246 
3.1078652246 3.1078652246 3.1078652246 3.0932710339 3.0786768432 3.0786768432 3.0932710339 3.1078652246 3.1078652246 
3.0932710339 3.0786768432 3.0786768432 3.0786768432 3.0932710339 3.1078652246 3.1078652246 3.1078652246 3.0932710339 
3.0786768432 3.0786768432 3.0786768432 3.0932710339 3.1078652246 3.1078652246 3.1078652246 3.0932710339 3.0786768432 
3.0786768432 3.0932710339 3.1078652246 3.1078652246 3.1078652246 3.1078652246 3.0932710339 3.0786768432 3.0786768432 
3.0932710339 3.0932710339 3.1078652246 3.1078652246 3.1078652246 3.0932710339 3.0786768432 3.0786768432 3.0786768432 
3.0786768432 3.0932710339 3.1078652246 3.1078652246 3.0932710339 3.0786768432 3.0786768432 3.0932710339 3.1078652246 
3.1078652246 3.1078652246 3.0932710339 3.0786768432 3.0786768432 3.0932710339 3.1078652246 3.1078652246 3.1078652246 
3.1078652246 3.0932710339 3.0932710339 3.0786768432 3.0786768432 3.0786768432 3.0932710339 3.1078652246 3.1078652246 
3.0932710339 3.0786768432 3.0786768432 3.0786768432 3.0932710339 3.1078652246 3.1078652246 3.0932710339 3.0786768432 
3.0786768432 3.0932710339 3.1078652246 3.1078652246 3.1078652246 3.1078652246 3.0932710339 3.0786768432 3.0786768432 
3.0786768432 3.0932710339 3.1078652246 3.1078652246 3.0932710339 3.0786768432 3.0786768432 3.0932710339 3.0932710339 
3.1078652246 3.1078652246 3.0932710339 3.0786768432 3.0786768432 3.0932710339 3.1078652246 3.1078652246 3.1078652246 
3.0932710339 3.0786768432 3.0786768432 3.0786768432 3.0932710339 3.1078652246 3.1078652246 3.1078652246 3.0932710339 
3.0786768432 3.0786768432 3.0932710339 3.1078652246 3.1078652246 3.0932710339 3.0786768432 3.0786768432 3.0932710339 
3.1078652246 3.1078652246 3.0932710339 3.0786768432 3.0786768432 3.0932710339 3.1078652246 3.1078652246 3.1078652246 
3.0932710339 3.0786768432 3.0786768432 3.0932710339 3.1078652246 3.1078652246 3.1078652246 3.0932710339 3.0786768432 
3.0786768432 3.0786768432 3.0932710339 3.1078652246 3.1078652246 3.0932710339 3.0786768432 3.0786768432 3.0786768432 
3.0932710339 3.1078652246 3.1078652246 3.1078652246 3.0932710339 3.0786768432 3.0786768432 3.0932710339 3.0932710339 
3.1078652246 3.1078652246 3.0932710339 3.0786768432 3.0786768432 3.0932710339 3.1078652246 3.1078652246 3.1078652246 
3.0932710339 3.0786768432 3.0786768432 3.0932710339 3.1078652246 3.1078652246 3.1078652246 3.0932710339 3.0786768432 
3.0786768432 3.0932710339 3.1078652246 3.1078652246 3.0932710339 3.0786768432 3.0786768432 3.0932710339 3.1078652246 
3.1078652246 3.1078652246 3.0932710339 3.0786768432 3.0786768432 3.0932710339 3.1078652246 3.1078652246 3.0932710339 
3.0786768432 3.0786768432 3.0932710339 3.1078652246 3.1078652246 3.0932710339 3.0786768432 3.0786768432 3.0932710339 
3.1078652246 3.1078652246 3.1078652246 3.0932710339 3.0786768432 3.0786768432 3.0932710339 3.0932710339 3.1078652246 
3.1078652246 3.1078652246 3.0932710339 3.0786768432 3.0786768432 3.0932710339 3.1078652246 3.1224594153 3.1224594153 
3.1224594153 3.1078652246 3.0932710339 3.0786768432 3.0786768432 3.0932710339 3.1078652246 3.1224594153 3.1224594153 
3.1224594153 3.1224594153 3.1224594153 3.1224594153 3.1224594153 3.1078652246 3.0932710339 3.0786768432 3.0786768432 
3.0786768432 3.0932710339 3.1078652246 3.1224594153 3.1224594153 3.1224594153 3.1224594153 3.1224594153 3.1078652246 
3.0932710339 3.0786768432 3.0786768432 3.0786768432 3.0786768432 3.0786768432 3.0786768432 3.0932710339 3.1078652246 
3.1078652246 3.1224594153 3.1224594153 3.1224594153 3.1224594153 3.1078652246 3.0932710339 3.0786768432 3.0786768432 
3.0786768432 3.0786768432 3.0786768432 3.0786768432 3.0932710339 3.1078652246 3.1224594153 3.1224594153 3.1224594153 
3.1078652246 3.1078652246 3.0932710339 3.0786768432 3.0786768432 3.0786768432 3.0786768432 3.0786768432 3.0786768432 
3.0640826525 3.0640826525 3.0640826525 3.0640826525 3.0640826525 3.0786768432 3.0932710339 3.1078652246 3.1224594153 
3.1224594153 3.1224594153 3.1078652246 3.0932710339 3.0786768432 3.0786768432 3.0786768432 3.0786768432 3.0786768432 
3.0640826525 3.0640826525 3.0640826525 3.0640826525 3.0640826525 3.0640826525 3.0786768432 3.0932710339 3.1078652246 
3.1078652246 3.1224594153 3.1224594153 3.1224594153 3.1078652246 3.0932710339 3.0786768432 3.0786768432 3.0786768432 
3.0786768432 3.0786768432 3.0786768432 3.0640826525 3.0640826525 3.0640826525 3.0786768432 3.0932710339 3.0932710339 
3.1078652246 3.1224594153 3.1224594153 3.1224594153 3.1078652246 3.0932710339 3.0786768432 3.0786768432 3.0786768432 
3.0786768432 3.0786768432 3.0640826525 3.0640826525 3.0640826525 3.0640826525 3.0786768432 3.0932710339 3.1078652246 
3.1224594153 3.1224594153 3.1224594153 3.1078652246 3.0932710339 3.0786768432 3.0786768432 3.0786768432 3.0786768432 
3.0640826525 3.0640826525 3.0786768432 3.0932710339 3.1078652246 3.1224594153 3.1224594153 3.1224594153 3.1078652246 
3.0932710339 3.0786768432 3.0786768432 3.0786768432 3.0786768432 3.0640826525 3.0640826525 3.0640826525 3.0640826525 
3.0786768432 3.0932710339 3.1078652246 3.1078652246 3.1224594153 3.1224594153 3.1224594153 3.1224594153 3.1078652246 
3.0932710339 3.0786768432 3.0786768432 3.0786768432 3.0786768432 3.0786768432 3.0640826525 3.0640826525 3.0786768432 
3.0932710339 3.1078652246 3.1224594153 3.1224594153 3.1078652246 3.1078652246 3.0932710339 3.0786768432 3.0786768432 
3.0786768432 3.0640826525 3.0640826525 3.0786768432 3.0932710339 3.1078652246 3.1224594153 3.1224594153 3.1224594153 
3.1078652246 3.0932710339 3.0786768432 3.0786768432 3.0786768432 3.0786768432 3.0640826525 3.0640826525 3.0640826525 
3.0640826525 3.0786768432 3.0932710339 3.1078652246 3.1224594153 3.1224594153 3.1078652246 3.0932710339 3.0786768432 
3.0786768432 3.0786768432 3.0640826525 3.0640826525 3.0786768432 3.0932710339 3.1078652246 3.1224594153 3.1224594153 
3.1224594153 3.1224594153 3.1078652246 3.0932710339 3.0786768432 3.0786768432 3.0786768432 3.0786768432 3.0640826525 
3.0640826525 3.0640826525 3.0640826525 3.0786768432 3.0932710339 3.0932710339 3.1078652246 3.1078652246 3.1224594153 
3.1224594153 3.1078652246 3.0932710339 3.0786768432 3.0786768432 3.0786768432 3.0786768432 3.0640826525 3.0640826525 
3.0786768432 3.0932710339 3.1078652246 3.1224594153 3.1224594153 3.1078652246 3.0932710339 3.0786768432 3.0786768432 
3.0786768432 3.0640826525 3.0640826525 3.0786768432 3.0932710339 3.1078652246 3.1224594153 3.1224594153 3.1224594153 
3.1224594153 3.1078652246 3.0932710339 3.0786768432 3.0786768432 3.0786768432 3.0786768432 3.0640826525 3.0640826525 
3.0786768432 3.0932710339 3.1078652246 3.1078652246 3.1224594153 3.1224594153 3.1078652246 3.0932710339 3.0786768432 
3.0786768432 3.0786768432 3.0640826525 3.0640826525 3.0786768432 3.0932710339 3.1078652246 3.1224594153 3.1224594153 
3.1224594153 3.1078652246 3.0932710339 3.0786768432 3.0786768432 3.0786768432 3.0786768432 3.0640826525 3.0640826525 
3.0640826525 3.0640826525 3.0786768432 3.0932710339 3.1078652246 3.1224594153 3.1224594153 3.1078652246 3.0932710339 
3.0786768432 3.0786768432 3.0786768432 3.0786768432 3.0640826525 3.0640826525 3.0786768432 3.0932710339 3.1078652246 
3.1224594153 3.1224594153 3.1224594153 3.1224594153 3.1078652246 3.1078652246 3.0932710339 3.0932710339 3.0786768432 
3.0786768432 3.0786768432 3.0786768432 3.0640826525 3.0640826525 3.0786768432 3.0932710339 3.1078652246 3.1078652246 
3.1224594153 3.137053606 3.137053606 3.137053606 3.137053606 3.1224594153 3.1078652246 3.0932710339 3.0786768432 
3.0786768432 3.0786768432 3.0640826525 3.0640826525 3.0786768432 3.0932710339 3.0932710339 3.1078652246 3.1224594153 
3.137053606 3.137053606 3.137053606 3.137053606 3.1224594153 3.1078652246 3.0932710339 3.0786768432 3.0786768432 
3.0786768432 3.0640826525 3.0494884618 3.0494884618 3.0494884618 3.0494884618 3.0494884618 3.0494884618 3.0640826525 
3.0786768432 3.0932710339 3.1078652246 3.1224594153 3.1224594153 3.137053606 3.137053606 3.137053606 3.137053606 
3.1224594153 3.1078652246 3.0932710339 3.0786768432 3.0786768432 3.0786768432 3.0640826525 3.0640826525 3.0494884618 
3.0494884618 3.0494884618 3.0640826525 3.0786768432 3.0932710339 3.1078652246 3.1224594153 3.137053606 3.137053606 
3.137053606 3.1224594153 3.1078652246 3.0932710339 3.0786768432 3.0786768432 3.0786768432 3.0640826525 3.0494884618 
3.0494884618 3.0494884618 3.0494884618 3.0640826525 3.0786768432 3.0932710339 3.1078652246 3.1078652246 3.1224594153 
3.1224594153 3.137053606 3.137053606 3.137053606 3.1224594153 3.1078652246 3.0932710339 3.0786768432 3.0786768432 
3.0786768432 3.0786768432 3.0786768432 3.0640826525 3.0494884618 3.0494884618 3.0640826525 3.0786768432 3.0932710339 
3.1078652246 3.1224594153 3.137053606 3.137053606 3.137053606 3.1224594153 3.1078652246 3.0932710339 3.0786768432 
3.0786768432 3.0786768432 3.0640826525 3.0494884618 3.0494884618 3.0494884618 3.0640826525 3.0786768432 3.0932710339 
3.0932710339 3.1078652246 3.1224594153 3.137053606 3.137053606 3.137053606 3.1224594153 3.1078652246 3.0932710339 
3.0786768432 3.0786768432 3.0786768432 3.0640826525 3.0494884618 3.0494884618 3.0494884618 3.0640826525 3.0786768432 
3.0932710339 3.1078652246 3.1078652246 3.1224594153 3.137053606 3.137053606 3.1224594153 3.1078652246 3.0932710339 
3.0786768432 3.0786768432 3.0786768432 3.0786768432 3.0640826525 3.0494884618 3.0494884618 3.0494884618 3.0640826525 
3.0786768432 3.0932710339 3.1078652246 3.1224594153 3.1224594153 3.137053606 3.137053606 3.137053606 3.1224594153 
3.1078652246 3.0932710339 3.0786768432 3.0786768432 3.0786768432 3.0640826525 3.0494884618 3.0494884618 3.0640826525 
3.0786768432 3.0932710339 3.1078652246 3.1224594153 3.137053606 3.137053606 3.137053606 3.1224594153 3.1224594153 
3.1078652246 3.0932710339 3.0786768432 3.0786768432 3.0786768432 3.0786768432 3.0786768432 3.0640826525 3.0494884618 
3.0494884618 3.0494884618 3.0640826525 3.0786768432 3.0932710339 3.1078652246 3.1078652246 3.1224594153 3.137053606 
3.137053606 3.1224594153 3.1078652246 3.0932710339 3.0786768432 3.0786768432 3.0786768432 3.0786768432 3.0786768432 
3.0640826525 3.0640826525 3.0494884618 3.0494884618 3.0640826525 3.0786768432 3.0786768432 3.0932710339 3.1078652246 
3.1224594153 3.137053606 3.137053606 3.1224594153 3.1078652246 3.0932710339 3.0932710339 3.0786768432 3.0786768432 
3.0786768432 3.0640826525 3.0494884618 3.0348942711 3.0348942711 3.0348942711 3.0348942711 3.0494884618 3.0640826525 
3.0786768432 3.0932710339 3.0932710339 3.1078652246 3.1224594153 3.1224594153 3.137053606 3.137053606 3.137053606 
3.137053606 3.1224594153 3.1224594153 3.1078652246 3.0932710339 3.0786768432 3.0640826525 3.0640826525 3.0640826525 
3.0640826525 3.0786768432 3.0786768432 3.0786768432 3.0640826525 3.0494884618 3.0348942711 3.0348942711 3.0348942711 
3.0348942711 3.0494884618 3.0494884618 3.0640826525 3.0786768432 3.0932710339 3.1078652246 3.1224594153 3.137053606 
3.137053606 3.1224594153 3.1078652246 3.1078652246 3.0932710339 3.0786768432 3.0640826525 3.0640826525 3.0640826525 
3.0640826525 3.0786768432 3.0786768432 3.0786768432 3.0786768432 3.0640826525 3.0494884618 3.0348942711 3.0348942711 
3.0348942711 3.0348942711 3.0494884618 3.0640826525 3.0786768432 3.0932710339 3.1078652246 3.1224594153 3.137053606 
3.137053606 3.1224594153 3.1078652246 3.0932710339 3.0786768432 3.0786768432 3.0640826525 3.0640826525 3.0640826525 
3.0786768432 3.0786768432 3.0786768432 3.0786768432 3.0640826525 3.0494884618 3.0348942711 3.0348942711 3.0494884618 
3.0640826525 3.0786768432 3.0932710339 3.1078652246 3.1224594153 3.137053606 3.137053606 3.137053606 3.1224594153 
3.1078652246 3.0932710339 3.0786768432 3.0640826525 3.0640826525 3.0640826525 3.0640826525 3.0786768432 3.0786768432 
3.0786768432 3.0786768432 3.0640826525 3.0494884618 3.0348942711 3.0348942711 3.0494884618 3.0640826525 3.0786768432 
3.0932710339 3.1078652246 3.1078652246 3.1224594153 3.137053606 3.137053606 3.1224594153 3.1078652246 3.0932710339 
3.0786768432 3.0640826525 3.0640826525 3.0640826525 3.0786768432 3.0786768432 3.0786768432 3.0640826525 3.0494884618 
3.0494884618 3.0348942711 3.0348942711 3.0203000804 3.0203000804 3.0203000804 3.0203000804 3.0348942711 3.0348942711 
3.0494884618 3.0640826525 3.0786768432 3.0786768432 3.0932710339 3.1078652246 3.1224594153 2.9473291268 2.9473291268 
2.9619233175 2.9619233175 2.9765175082 2.9765175082 2.991111699 2.991111699 3.0057058897 3.0057058897 3.0203000804 
3.0203000804 3.0348942711 3.0348942711 3.0494884618 3.0494884618 3.0640826525 3.0640826525 3.0786768432 3.0786768432 
3.0932710339 3.0932710339 3.1078652246 3.1078652246 3.1224594153 3.1224594153 2.9473291268 2.9619233175 2.9765175082 
2.991111699 3.0057058897 3.0203000804 3.0348942711 3.0494884618 3.0640826525 3.0786768432 3.0932710339 3.1078652246 
3.1224594153 3.137053606 2.9473291268 2.9619233175 2.9765175082 2.991111699 3.0057058897 3.0203000804 3.0348942711 
3.0494884618 3.0640826525 3.0786768432 3.0932710339 3.1078652246 3.1224594153 3.137053606 2.9473291268 2.9619233175 
2.9765175082 2.991111699 3.0057058897 3.0203000804 3.0348942711 3.0494884618 3.0640826525 3.0786768432 3.0932710339 
3.1078652246 3.1224594153 3.137053606 2.9473291268 2.9619233175 2.9765175082 2.991111699 3.0057058897 3.0203000804 
3.0348942711 3.0494884618 3.0640826525 3.0786768432 3.0932710339 3.1078652246 3.1224594153 3.137053606 2.9473291268 
2.9619233175 2.9765175082 2.991111699 3.0057058897 3.0203000804 3.0348942711 3.0494884618 3.0640826525 3.0786768432 
3.0932710339 3.1078652246 3.1224594153 3.137053606 2.9473291268 2.9619233175 2.9765175082 2.991111699 3.0057058897 
3.0203000804 3.0348942711 3.0494884618 3.0640826525 3.0786768432 3.0932710339 3.1078652246 3.1224594153 3.137053606 
2.9473291268 2.9619233175 2.9765175082 2.991111699 3.0057058897 3.0203000804 3.0348942711 3.0494884618 3.0640826525 
3.0786768432 3.0932710339 3.1078652246 3.1224594153 3.137053606 2.9473291268 2.9619233175 2.9765175082 2.991111699 
3.0057058897 3.0203000804 3.0348942711 3.0494884618 3.0640826525 3.0786768432 3.0932710339 3.1078652246 3.1224594153 
3.137053606 2.9473291268 2.9619233175 2.9765175082 2.991111699 3.0057058897 3.0203000804 3.0348942711 3.0494884618 
3.0640826525 3.0786768432 3.0932710339 3.1078652246 3.1224594153 3.137053606 3.137053606 3.1224594153 3.1078652246 
3.0932710339 3.0786768432 3.0640826525 3.0640826525 3.0786768432 3.0786768432 3.0786768432 3.0640826525 3.0494884618 
3.0348942711 3.0203000804 3.0203000804 3.0203000804 3.0348942711 3.0494884618 3.0640826525 3.0786768432 3.0932710339 
3.1078652246 2.9473291268 2.9473291268 2.9619233175 2.9619233175 2.9765175082 2.9765175082 2.991111699 2.991111699 
3.0057058897 3.0057058897 3.0203000804 3.0203000804 3.0348942711 3.0348942711 3.0494884618 3.0494884618 3.0640826525 
3.0640826525 3.0786768432 3.0786768432 3.0932710339 3.0932710339 3.1078652246 3.1078652246 2.9473291268 2.9619233175 
2.9765175082 2.991111699 3.0057058897 3.0203000804 3.0348942711 3.0494884618 3.0640826525 3.0786768432 3.0932710339 
3.1078652246 2.9473291268 2.9619233175 2.9765175082 2.991111699 3.0057058897 3.0203000804 3.0348942711 3.0494884618 
3.0640826525 3.0786768432 3.0932710339 3.1078652246 2.9473291268 2.9619233175 2.9765175082 2.991111699 3.0057058897 
3.0203000804 3.0348942711 3.0494884618 3.0640826525 3.0786768432 3.0932710339 3.1078652246 3.1224594153 2.9473291268 
2.9619233175 2.9765175082 2.991111699 3.0057058897 3.0203000804 3.0348942711 3.0494884618 3.0640826525 3.0786768432 
3.0932710339 3.1078652246 3.1224594153 2.9473291268 2.9619233175 2.9765175082 2.991111699 3.0057058897 3.0203000804 