# vtk DataFile Version 4.2
vtk output
ASCII
DATASET UNSTRUCTURED_GRID
POINTS 1740 double
2144.07 -94.44003 0 2911 0 0 16.54298 -37.82236 0 
5.09149 -21.30132 0 1.27433 -10.75385 0 0 0 0 
2.54575 15.14293 0 6.36291 23.76126 0 14.00014 34.89063 0 
30.50239 50.70793 0 33.39435 -52.93479 0 2050.91 -103.7862 0 
60.1465 -69.72165 0 88.83633 -83.2817 0 118.7656 -94.71113 0 
153.4168 -105.7022 0 199.5806 -117.771 0 261.4466 -130.7139 0 
345.846 -144.1892 0 460.3522 -157.0592 0 608.4185 -167.1903 0 
783.2313 -172.4016 0 941.0559 -172.4533 0 1063.409 -170.1096 0 
1164.153 -166.8746 0 1263.449 -162.682 0 1375.468 -156.8941 0 
1513.293 -148.414 0 1665.281 -137.5317 0 1791.864 -127.3721 0 
2195.451 -89.09491 0 2273.924 -80.67077 0 2383.731 -68.3513 0 
2517.64 -52.47337 0 2649.227 -35.9232 0 2740.773 -23.82991 0 
2804.387 -15.13419 0 2848.802 -8.916218 0 2881.944 -4.196067 0 
56.61447 67.79801 0 84.09687 81.25172 0 112.4783 92.48395 0 
142.1748 102.3504 0 174.8563 111.6168 0 213.124 120.8806 0 
260.3759 130.5151 0 324.6539 141.1779 0 418.1422 152.9178 0 
535.6656 162.9871 0 690.9154 170.4255 0 902.6513 172.7852 0 
1100.32 169.0517 0 1270.99 162.3262 0 1462.794 151.6837 0 
1631.287 140.0952 0 1747.993 131 0 1922.788 115.9027 0 
2069.56 101.951 0 2128.804 96.0021 0 2297.147 78.11721 0 
2414.379 64.80104 0 2554.023 47.99319 0 2673.693 32.73885 0 
2757.97 21.50315 0 2814.297 13.7575 0 2852.02 8.460961 0 
2882.272 4.148909 0 1791.052 127.4402 0 1366.894 157.3738 0 
1444.38 -152.8302 0 1547.039 146.1296 0 1589.287 -143.1614 0 
1878.731 119.8675 0 1997.072 108.9828 0 1185.654 166.0472 0 
1882.536 -119.5292 0 1971.323 -111.4145 0 1684.777 136.0292 0 
2099.317 -98.9855 0 2234.809 84.9091 0 2181.695 90.53914 0 
1728.573 -132.5703 0 1718.815 133.3509 0 1834.825 123.7132 0 
1960.305 112.4444 0 2033.69 105.4648 0 2099.184 98.99892 0 
2214.291 -71.591292197 396.8421 2955.512 16.929626934 396.8421 158.0786 -22.927437822 396.8421 
147.0109 -7.0691621718 396.8421 143.3217 3.0783921435 396.8421 142.09 13.441975254 396.8421 
144.5505 28.064350924 396.8421 148.2398 36.402160766 396.8421 155.621 47.187182203 396.8421 
171.5701 62.551836002 396.8421 174.3652 -37.39172251 396.8421 2124.254 -80.48026855 396.8421 
200.2206 -53.407028308 396.8421 227.9488 -66.29962477 396.8421 256.8748 -77.131877956 396.8421 
290.3647 -87.51462773 396.8421 334.981 -98.870221713 396.8421 394.7733 -110.98291052 396.8421 
476.3434 -123.49451963 396.8421 587.0114 -135.28825448 396.8421 730.1145 -144.32739577 396.8421 
899.0676 -148.591483 396.8421 1051.602 -148.05103443 396.8421 1169.853 -145.39836362 396.8421 
1267.221 -141.99893044 396.8421 1363.188 -137.71912333 396.8421 1471.452 -131.91753726 396.8421 
1604.657 -123.5388967 396.8421 1751.55 -112.91378606 396.8421 1873.891 -103.08151692 396.8421 
2263.949 -66.521783937 396.8421 2339.792 -58.550947702 396.8421 2445.918 -46.932148606 396.8421 
2575.338 -32.015128184 396.8421 2702.515 -16.525818472 396.8421 2790.992 -5.2404885892 396.8421 
2852.473 2.8592487106 396.8421 2895.4 8.6440059929 396.8421 2927.431 13.031650489 396.8421 
196.807 79.205726719 396.8421 223.3682 92.358924037 396.8421 250.7983 103.37289499 396.8421 
279.4994 113.07523506 396.8421 311.0855 122.2145041 396.8421 348.0705 131.38159522 396.8421 
393.7383 140.95469686 396.8421 455.8617 151.60973307 396.8421 546.2162 163.44922007 396.8421 
659.8003 173.77094363 396.8421 809.846 181.68210713 396.8421 1014.485 184.8298692 396.8421 
1205.528 181.896368 396.8421 1370.477 175.86561675 396.8421 1555.851 165.97312287 396.8421 
1718.696 154.99432026 396.8421 1831.49 146.28623976 396.8421 2000.426 131.70468508 396.8421 
2142.278 118.11987 396.8421 2199.537 112.30080506 396.8421 2362.236 94.724310981 396.8421 
2475.539 81.568279117 396.8421 2610.501 64.891009647 396.8421 2726.16 49.695803181 396.8421 
2807.613 38.472393161 396.8421 2862.05 30.721434543 396.8421 2898.509 25.415286039 396.8421 
2927.749 21.092026276 396.8421 1873.106 142.86096874 396.8421 1463.165 171.29413011 396.8421 
1538.054 -127.88844019 396.8421 1637.272 160.73069715 396.8421 1678.104 -118.39615655 396.8421 
1957.846 135.54724821 396.8421 2072.22 124.97846602 396.8421 1288 179.24082843 396.8421 
1961.524 -95.53541924 396.8421 2047.334 -87.761291543 396.8421 1770.393 151.10974647 396.8421 
2171.038 -75.910363408 396.8421 2301.989 101.41261718 396.8421 2250.655 106.94450474 396.8421 
1812.721 -108.10329243 396.8421 1803.29 148.54331485 396.8421 1915.411 139.26575016 396.8421 
2036.686 128.34609681 396.8421 2107.61 121.54991378 396.8421 2170.909 115.23409291 396.8421 
2284.511 -52.595466808 793.6842 3000.027 30.976087561 793.6842 299.6143 -9.794784387 793.6842 
288.9304 5.4363133547 793.6842 285.3691 15.200233182 793.6842 284.1801 25.185347279 793.6842 
286.5551 39.295849907 793.6842 290.1167 47.353807194 793.6842 297.2417 57.790412695 793.6842 
312.6379 72.686669494 793.6842 315.336 -23.655183779 793.6842 2197.597 -61.068279227 793.6842 
340.2947 -38.962883852 793.6842 367.0612 -51.252582923 793.6842 394.9839 -61.552361359 793.6842 
427.3123 -71.399321936 793.6842 470.3812 -82.135462651 793.6842 528.0998 -93.539215989 793.6842 
606.8411 -105.24570858 793.6842 713.6708 -116.16680631 793.6842 851.8104 -124.35774064 793.6842 
1014.904 -127.93365848 793.6842 1162.147 -127.00696977 793.6842 1276.298 -124.18540658 793.6842 
1370.288 -120.72348873 793.6842 1462.927 -116.44449821 793.6842 1567.436 -110.71351858 793.6842 
1696.021 -102.51639102 793.6842 1837.82 -92.205492008 793.6842 1955.917 -82.721611689 793.6842 
2332.447 -47.772378645 793.6842 2405.659 -40.200993043 793.6842 2508.105 -29.188287861 793.6842 
2633.037 -15.085356317 793.6842 2755.801 -0.4775048612 793.6842 2841.209 10.14592238 793.6842 
2900.561 17.761708988 793.6842 2941.997 23.196786787 793.6842 2972.917 27.317079072 793.6842 
336.9995 88.872727243 793.6842 362.6396 101.68858539 793.6842 389.1182 112.44424573 793.6842 
416.8239 121.93941106 793.6842 447.3145 130.90316652 793.6842 483.0167 139.91606145 793.6842 
527.1009 149.35601062 793.6842 587.0697 159.90521956 793.6842 674.2905 171.70211398 793.6842 
783.9349 182.10015116 793.6842 928.7766 190.25895397 793.6842 1126.317 193.90906155 793.6842 
1310.735 191.53831597 793.6842 1469.963 186.02592437 793.6842 1648.908 176.72237126 793.6842 
1806.105 166.24943254 793.6842 1914.987 157.87899408 793.6842 2078.064 143.77718032 793.6842 
2214.996 130.5670355 793.6842 2270.269 124.89132163 793.6842 2427.326 107.69629031 793.6842 
2536.699 94.783023986 793.6842 2666.98 78.370777103 793.6842 2778.628 63.382492342 793.6842 
2857.255 52.294187519 793.6842 2909.806 44.628893223 793.6842 2945.001 39.378152087 793.6842 
2973.224 35.098244281 793.6842 1955.16 154.57493448 793.6842 1559.437 181.74951879 793.6842 
1631.729 -106.76248766 793.6842 1727.505 171.73506674 793.6842 1766.921 -97.516244366 793.6842 
2036.96 147.50199839 793.6842 2147.368 137.24393861 793.6842 1390.347 189.13993006 793.6842 
2040.511 -75.471859472 793.6842 2123.346 -68.025105603 793.6842 1856.009 162.52114532 793.6842 
2242.759 -56.709679925 793.6842 2369.167 114.24783323 793.6842 2319.614 119.65899484 793.6842 
1896.869 -87.55961609 793.6842 1887.765 160.05285819 793.6842 1995.998 151.10102881 793.6842 
2113.066 140.51696441 793.6842 2181.531 133.90802639 793.6842 2242.634 127.75351423 793.6842 
2354.732 -36.9926199 1190.526 3044.539 42.359994741 1190.526 441.15 1.4675127119 1190.526 
430.8497 16.09880676 1190.526 427.4164 25.491262957 1190.526 426.2701 35.106350452 1190.526 
428.5601 48.710267302 1190.526 431.9934 56.487792401 1190.526 438.8627 66.571214357 1190.526 
453.7057 80.983897021 1190.526 456.3069 -11.823758069 1190.526 2270.94 -45.084781277 1190.526 
480.3688 -26.47438963 1190.526 506.1737 -38.21237574 1190.526 533.0934 -48.031036621 1190.526 
564.26 -57.399750901 1190.526 605.7815 -67.59050945 1190.526 661.4265 -78.380603465 1190.526 
737.3385 -89.40585382 1190.526 840.33 -99.611307809 1190.526 973.5064 -107.13936075 1190.526 
1130.74 -110.22035608 1190.526 1272.693 -109.0572239 1190.526 1382.742 -106.16666378 1190.526 
1473.356 -102.71362612 1190.526 1562.666 -98.495791863 1190.526 1663.42 -92.891200764 1190.526 
1787.385 -84.926519453 1190.526 1924.09 -74.962083992 1190.526 2037.944 -65.833865177 1190.526 
2400.946 -32.391676263 1190.526 2471.527 -25.176265455 1190.526 2570.292 -14.695304521 1190.526 
2690.735 -1.2940297959 1190.526 2809.091 12.566780013 1190.526 2891.43 22.636343681 1190.526 
2948.647 29.85042708 1190.526 2988.597 34.996698929 1190.526 3018.403 38.89704972 1190.526 
477.1918 96.673711257 1190.526 501.9109 109.12002562 1190.526 527.4382 119.58300049 1190.526 
554.1485 128.83432127 1190.526 583.5435 137.58179091 1190.526 617.963 146.39276754 1190.526 
660.4633 155.64056929 1190.526 718.2775 166.00427933 1190.526 802.3645 177.64484596 1190.526 
908.0698 187.98082672 1190.526 1047.707 196.21454866 1190.526 1238.151 200.15436123 1190.526 
1415.942 198.17587768 1190.526 1569.449 193.05953633 1190.526 1741.965 184.23854332 1190.526 
1893.514 174.2074355 1190.526 1998.484 166.14768187 1190.526 2155.702 152.51359854 1190.526 
2287.714 139.69575934 1190.526 2341.001 134.17803622 1190.526 2492.415 117.43061581 1190.526 
2597.858 104.82844567 1190.526 2723.46 88.787311904 1190.526 2831.095 74.11907785 1190.526 
2906.899 63.258187726 1190.526 2957.56 55.746270531 1190.526 2991.49 50.598966592 1190.526 
3018.699 46.40249188 1190.526 2037.214 162.958751 1190.526 1655.708 189.02078735 1190.526 
1725.403 -89.04617727 1190.526 1817.738 179.47074251 1190.526 1855.738 -80.088265416 1190.526 
2116.075 156.12048844 1190.526 2222.516 146.1790181 1190.526 1492.694 195.97047535 1190.526 
2119.498 -58.874269621 1190.526 2199.357 -51.739340625 1190.526 1941.625 170.62115632 1190.526 
2314.479 -40.92038533 1190.526 2436.346 123.81661383 1190.526 2388.573 129.08656481 1190.526 
1981.017 -70.486587263 1190.526 1972.24 168.24359125 1190.526 2076.584 159.6019099 1190.526 
[...]
POINT_DATA 1740
FIELD FieldData 1
Pressure 1 1740 double
3.1036664369 3.0190967277 3.0094903324 2.986269741 2.9779681491 2.9561591239 2.9700349009 2.9873688354 3.0186855671 
3.0321257585 3.0113113393 3.1073995112 3.0347140061 3.0490613447 3.0659946447 3.0648913921 3.0820203252 3.0871027411 
3.1078359805 3.11245627 3.1305950017 3.1384224955 3.1400547388 3.1449439624 3.1399569443 3.1359160465 3.1327828109 
3.1291915073 3.1230493348 3.117847239 3.1010133867 3.097849201 3.0922210809 3.0844869571 3.0736290083 3.0639154866 
3.0537562567 3.045550433 3.0363801129 3.068193909 3.0806061621 3.0930444326 3.1059492341 3.1117929824 3.1192269309 
3.1266306653 3.1346566521 3.1507128145 3.1639517912 3.1805897315 3.1921645509 3.1992470324 3.2058976344 3.2119208133 
3.2161884078 3.2194755803 3.2206026546 3.2336228471 3.1203804454 3.0893715478 3.0837872039 3.0741451072 3.064433495 
3.0543842944 3.043755947 3.036527217 3.034709496 3.2194747542 3.2093160093 3.1316065093 3.2131999851 3.1261983552 
3.2202903579 3.2211511171 3.2059376931 3.1141031095 3.1106339334 3.2171307873 3.1055333135 3.0960702106 3.1023019178 
3.1202786994 3.2187022747 3.2202855849 3.2216340476 3.2221816941 3.2404243671 3.1005498492 3.0230263269 3.0269448406 
3.0003755614 3.0074008842 2.9850457687 2.993855033 3.0061434357 3.0340168804 3.0520458051 3.0358130085 3.104767175 
3.0559439109 3.0684728357 3.0818239504 3.0855795617 3.1009650436 3.1100576603 3.1231155155 3.1278879807 3.1377229758 
3.1412799892 3.1442505965 3.1439131115 3.1394431868 3.1349418433 3.1299406505 3.1257406279 3.1200537204 3.115010793 
3.0982089392 3.0943884615 3.0887012184 3.0811605167 3.0702027438 3.0604733002 3.050637186 3.0432807753 3.0267673838 
3.0850816164 3.1058622308 3.1176411555 3.1263205207 3.1352861412 3.1401234095 3.1457140704 3.1559339507 3.1682781866 
3.1781075413 3.1875289069 3.1959546794 3.202611914 3.2094897141 3.2133234533 3.2166270286 3.2192283852 3.2221352458 
3.1912055834 3.0814505939 3.0899030398 3.0837899311 3.0752975293 3.0650348666 3.0551342341 3.0446578472 3.0382921296 
3.0394027433 3.2199871547 3.2114832953 3.1287583119 3.2156467391 3.1226252226 3.2214444759 3.222618107 3.2076549765 
3.1111732143 3.1076547058 3.2177905649 3.1029247331 3.0896607242 3.0832720395 3.1178357147 3.2185586379 3.2204769098 
3.2229446769 3.224184583 3.0942893726 3.0983840724 3.0221525255 3.0276482776 3.0002896996 3.0018232129 2.9835947881 
2.9967625618 3.0102866751 3.0389263026 3.0598278544 3.0441232243 3.1024199907 3.0588873946 3.0778725562 3.0958268255 
3.1021431636 3.1145611515 3.1226900146 3.1348978062 3.1403856432 3.1470902364 3.1486067756 3.1473504321 3.1449124643 
3.1389713631 3.1335332381 3.1286063112 3.1230553303 3.1180378488 3.1130328547 3.096081354 3.0924692082 3.0866334629 
3.0791250706 3.0680206676 3.0581151618 3.0487656477 3.0417695993 3.0279971402 3.0921874455 3.1139832962 3.1321896073 
3.141404508 3.1535282735 3.1614631587 3.1713038825 3.1755135802 3.1842207785 3.1944451783 3.2001232653 3.2063826109 
3.2092680753 3.2162882862 3.2196737546 3.2205564648 3.2223013252 3.2248911425 3.0838073998 3.0870890416 3.0851876398 
3.0808298378 3.0733158907 3.0634413257 3.0541419744 3.0443387742 3.0374233749 3.0394771508 3.2231337432 3.218018096 
3.1263122684 3.2203262417 3.1204990171 3.2240414676 3.2214136284 3.2133935722 3.1092069959 3.1054358223 3.2209512212 
3.10080577 3.0875157934 3.088060002 3.1157395892 3.2214585032 3.2240400923 3.2252261842 3.1910887892 3.089160455 
3.0967311821 3.0225786023 3.02855799 3.0005648089 3.0028925336 2.9816738495 2.9924773195 3.0066960918 3.0393713781 
3.0606750618 3.0438199587 3.1008044903 3.064250344 3.081590059 3.1005009072 3.1089755734 3.121183538 3.1291869881 
3.1409230446 3.1471751579 3.153157084 3.1529093957 3.1501329523 3.1457209555 3.1391888588 3.1333644451 3.1278510403 
3.1221095538 3.1163838349 3.1114654146 3.0945817666 3.0909483026 3.0854328619 3.0778888903 3.0671487784 3.0571546521 
3.0483629544 3.0412808791 3.0287346113 3.0958846767 3.1194327922 3.134814238 3.1472360986 3.1541970867 3.1657137011 
3.1784063887 3.1881508728 3.1962312647 3.2066391104 3.2126401269 3.217758146 3.2189955306 3.2250821661 3.2279424119 
3.2280797968 3.2290199778 3.2311403188 3.0824105281 3.0862111251 3.085529306 3.0812330764 3.0736144612 3.0638049722 
3.0543398214 3.0451082196 3.0378345511 3.0402468168 3.2293974975 3.2264763685 3.1254433792 3.2280696498 3.1190907457 
3.2300669699 3.2135049668 3.222415256 3.1077449559 3.1038293066 3.2281037961 3.0990630145 3.0867617829 3.0863580042 
3.1139341442 3.2282624047 3.2299840396 3.2327904197 3.077556799 3.0819760532 3.0957059286 3.0235833849 3.0307138575 
3.0013824386 3.0072933391 2.9857032715 2.9944141235 3.0076882395 3.0414561295 3.0619836205 3.0452181456 3.0996632426 
3.0667338676 3.0840345611 3.1007912594 3.1104573176 3.1230472252 3.1333755404 3.1435301093 3.1504487258 3.1563846431 
3.1547823107 3.1507371508 3.1451573441 3.1382583012 3.1322532649 3.1264769361 3.1209261589 3.1152138682 3.1100494655 
3.0934795131 3.0897849234 3.0844756375 3.076952196 3.0665132044 3.0566767218 3.0481287356 3.0408598333 3.0289883354 
3.0973170794 3.1212565349 3.1363403315 3.1494839092 3.1589541164 3.1701320576 3.1816197361 3.1875829231 3.1988930821 
3.2119275573 3.2216052453 3.2261084985 3.2282533841 3.2335909282 3.2359152241 3.2357080751 3.2364762303 3.2375660422 
3.0884193912 3.0873975666 3.0877304847 3.083322551 3.075974976 3.0659889106 3.0564367139 3.0472791315 3.0399357055 
3.0419955608 3.2367647835 3.2351222457 3.1242629747 3.2358997611 3.1179419412 3.2370833555 3.082218933 3.2313648635 
3.1064321866 3.1025688045 3.2357977466 3.0977213266 3.0890013464 3.0887818498 3.1126162451 3.2359159496 3.237135919 
3.2376119057 3.0861817801 3.0869019542 3.0947425573 3.0242172387 3.0318967631 3.0026757471 3.0091735121 2.9866899935 
2.9958502586 3.009122251 3.0422194374 3.0639728266 3.0461249228 3.0986135014 3.0678981275 3.0859716054 3.1017790027 
3.1119717261 3.1245102798 3.1357914902 3.1460319965 3.1533171356 3.1588371471 3.1562578343 3.1509688143 3.1443629911 
3.1372693268 3.1311596347 3.1252903471 3.1197698155 3.1140429547 3.1088894789 3.0924937998 3.0887981586 3.083636418 
3.0761437194 3.065903235 3.0561349623 3.0477622784 3.0403435007 3.0290966442 3.098784337 3.123045403 3.1382882824 
3.151419731 3.1607240217 3.1725039277 3.1852903568 3.1927416862 3.2043403641 3.2169063124 3.2281294962 3.2342576328 
3.2367560919 3.2430112816 3.2446572355 3.2436495435 3.2439035248 3.2484341581 3.0889268051 3.0892826315 3.0882775541 
3.0839978032 3.0769921467 3.0672291467 3.0579095892 3.0487165487 3.041233013 3.0435014566 3.2441757349 3.2436968044 
3.123120581 3.2441791445 3.1167839284 3.244440864 3.0847879068 3.2399023979 3.105284379 3.1015780562 3.2434370464 
3.0967733451 3.0898223655 3.0896952868 3.1114441996 3.2435500278 3.2443539506 3.1581681994 3.0867849526 3.0894977539 
3.094083392 3.0235950889 3.0323817075 3.0029250739 3.0088997679 2.9864267494 2.9957505741 3.009255613 3.0423296538 
3.064562324 3.0465936133 3.0980042773 3.068501167 3.0868057098 3.1025738225 3.1131382955 3.1257288716 3.1376342776 
3.147606464 3.1550004704 3.1607522384 3.1573699627 3.1511378097 3.1438492747 3.1367257038 3.1305635419 3.1246963154 
3.1189291685 3.1133413742 3.1081902562 3.0918580637 3.0881760532 3.0831049414 3.0756563909 3.0654989275 3.0556766495 
3.0474118589 3.0398377178 3.0293302435 3.0993994455 3.1238861493 3.1395414631 3.152723511 3.1624522141 3.1742331847 
3.1868678867 3.1951460341 3.2072181587 3.2208334959 3.2327876207 3.2402582997 3.2442431751 3.2507567208 3.2525241932 
3.2523652645 3.2520104957 3.2654510254 3.0860415085 3.086697419 3.0858694458 3.0817241473 3.0749365014 3.0657411655 
3.056828941 3.0478796288 3.0402688565 3.042971097 3.2520545696 3.2525401284 3.1223681208 3.2527948709 3.1160519967 
3.2524544299 3.0833279197 3.2477795623 3.1045831011 3.1009186502 3.2519419476 3.0960597465 3.0872378617 3.0867212927 
3.1106814751 3.2517127121 3.2523705946 3.0798248378 3.0847805038 3.0859181747 3.0937202465 3.0226442664 3.0327868026 
3.0031915085 3.0091652471 2.9868054608 2.9958773582 3.0093845577 3.0425599996 3.0648981158 3.0468263887 3.0976346524 
3.0687978175 3.0872952925 3.1029304274 3.113801886 3.1264657856 3.1387740444 3.1486909138 3.1561971631 3.162171509 
3.1582509329 3.1513043745 3.1436839404 3.1366080395 3.1303494102 3.1245362092 3.1185027323 3.1130848541 3.1079000071 
3.0915137991 3.0878912361 3.0829168472 3.0754401278 3.0653765685 3.0553597326 3.0471456749 3.0394989111 3.0295926676 
3.0998384841 3.1244841112 3.1403759437 3.1536400445 3.1634899678 3.1753338036 3.1879927717 3.1969598555 3.2093521713 
3.2232440622 3.2358740719 3.2447651151 3.2499526403 3.25745156 3.2604467013 3.2602477026 3.2601514857 3.2613582756 
3.083313053 3.0830548184 3.0827046746 3.0785493005 3.0719247687 3.0630808439 3.0543420072 3.0458461281 3.0381645732 
3.0412657429 3.2605877852 3.2594315631 3.122019192 3.2605143814 3.1157672085 3.2606012583 3.0812081055 3.2538476484 
3.1043016802 3.100718117 3.2600866759 3.0956376814 3.0839858816 3.0833075339 3.1103936071 3.2598493391 3.2611445045 
3.0820146659 3.0817848891 3.0830374516 3.0936264722 3.0222157623 3.0331792569 3.0034839938 3.009657346 2.9873111555 
2.9962234692 3.0097570483 3.0430074196 3.0654028022 3.0469949278 3.0974747174 3.0689660095 3.0874665865 3.1031598785 
3.1142960689 3.1269436661 3.1395460814 3.1495285889 3.1571865565 3.1634169369 3.1591798501 3.1517056199 3.1439452144 
3.136845735 3.1304889702 3.1246995146 3.1186756196 3.1132018372 3.1079258958 3.0914831055 3.0878704589 3.082958181 
3.0754533834 3.0654384271 3.0553690678 3.0471612898 3.0394775712 3.0297473875 3.1004500217 3.1251487357 3.1411891661 
3.1545344843 3.1644677015 3.1763622327 3.1889312963 3.1983398959 3.2110678072 3.2251141713 3.2380363488 3.2478780255 
3.2539778755 3.262101416 3.2661692568 3.2667402696 3.2674222838 3.2690525985 3.080891397 3.0811729673 3.080160105 
3.0760781682 3.0698442844 3.0611139858 3.0524226914 3.0442480569 3.0366528305 3.0397629101 3.2675432681 3.264604191 
3.1221902938 3.2669505244 3.1159187395 3.2677613702 3.0789733988 3.258212263 3.1043962511 3.1007271536 3.266811207 
3.095504223 3.0815127027 3.080703588 3.110418405 3.2667994439 3.2675534175 3.0737465311 3.0799434274 3.0807639808 
3.093886503 3.0223663445 3.0335611922 3.0038134473 3.0102399356 2.9878470952 2.996617747 3.0101916039 3.0435492828 
3.0660041738 3.0470431869 3.0978639875 3.068920581 3.0874086188 3.1031525695 3.1144854881 3.1272277786 3.1400150955 
3.1502310249 3.1580039296 3.1646537439 3.1603163653 3.1525203068 3.1447028382 3.1374940527 3.1310731779 3.1252400671 
3.1192910297 3.1136801272 3.1083288372 3.0918099237 3.0881631415 3.0832249738 3.0756953508 3.0657135547 3.0556052161 
3.0474017006 3.0396790911 3.0299425557 3.1012088741 3.1259164977 3.1421745849 3.1555463632 3.1655195067 3.1774188165 
3.189917056 3.199591223 3.2125805293 3.2266873737 3.239736621 3.2498913579 3.2566026323 3.2652655543 3.2697044926 
3.2713647728 3.2721469485 3.2875340815 3.0780796335 3.0791626011 3.0784122684 3.0744889499 3.068748383 3.0599457079 
3.0513660413 3.043425551 3.036003692 3.0389382758 3.2725906423 3.2680493748 3.1228032594 3.2710275863 3.1164690676 
3.2732316052 3.0771661665 3.261107838 3.10479475 3.1011828975 3.2717443409 3.0957123325 3.0797395349 3.0790167004 
3.1108330767 3.2718104313 3.272897545 3.0663015946 3.0772010545 3.0776088668 3.0945080923 3.0226767339 3.0339276317 
3.0040551966 3.0108352804 2.9884436741 2.9970592508 3.0106630098 3.0441799496 3.0666596095 3.0467566916 3.0985803597 
3.0685296055 3.0871825756 3.1030917316 3.1145703956 3.1274145178 3.1402651884 3.1507331793 3.158779533 3.1659448176 
3.161704232 3.153764915 3.1458748805 3.1385094919 3.1320393451 3.1260937341 3.120123521 3.1143635332 3.1089466992 
3.0924140741 3.0886832184 3.083709174 3.076112259 3.0661501696 3.055976973 3.0477599278 3.0400175853 3.0303790614 
3.10206643 3.1268026721 3.1431451316 3.1565758459 3.1665987426 3.1784867103 3.1909629562 3.2007881359 3.2139842822 
3.2280666426 3.2411960631 3.251413837 3.2583452412 3.2674188337 3.2720104159 3.2740994999 3.2753446227 3.2984335528 
3.0764419621 3.0768126069 3.0774714452 3.0736644847 3.0679931648 3.0589256962 3.0503929738 3.0425721272 3.0353761119 
3.0379770461 3.2760300309 3.2703413788 3.1236156089 3.2736123174 3.1172120888 3.2770229719 3.0736307642 3.2629483056 
3.1054071685 3.1018644979 3.2747465693 3.0963292906 3.0786621634 3.0780987277 3.1114583612 3.2749333659 3.2764160361 
3.0639952446 3.0743885343 3.0759752404 3.0952529715 3.0223960878 3.0341548171 3.0041446899 3.0111310385 2.9890078505 
2.997547418 3.0111789748 3.0448993385 3.0673485239 3.0461982558 3.0993223651 3.0679525026 3.0866593584 3.1028573071 
3.1144921363 3.1273604471 3.1402321817 3.1511204653 3.1595092291 3.1672404311 3.1632688715 3.1553568407 3.1473240363 
3.139760702 3.1331858999 3.1271134029 3.1211567895 3.1151804526 3.1097189251 3.0930913937 3.0892763521 3.0842729848 
3.0765869618 3.0666183727 3.0563883869 3.0481378045 3.0403706194 3.0307881624 3.1030954368 3.1277931988 3.1442370523 
3.1577178583 3.1677321049 3.1796341351 3.1920936519 3.2020372395 3.2154033119 3.2293990266 3.2425300313 3.2527717779 
3.2596824231 3.2687773934 3.2736747808 3.2759524319 3.2774121319 3.2953637601 3.0764225556 3.076201527 3.075385396 
3.0713357603 3.0654201687 3.0564377272 3.0480509689 3.0402823905 3.0334484428 3.0357239878 3.2782062724 3.2719673377 
3.1246386365 3.2753825535 3.1180522701 3.279291026 3.0742410023 3.2642555303 3.1061285663 3.1025430194 3.2766415755 
3.0970643736 3.0766393581 3.0761451664 3.1122371689 3.276924998 3.2783936149 3.065740017 3.0744850977 3.0763195042 
3.0959953136 3.0214965997 3.0342399569 3.0040547161 3.0108338019 2.989494063 2.9980710123 3.0117376555 3.0460074329 
3.068346475 3.0455890848 3.1000938067 3.067311026 3.0860319464 3.1025394544 3.1143270544 3.1272287974 3.1400339108 
3.1516779889 3.1601947502 3.1684041963 3.1649264125 3.1572383011 3.1489688906 3.1411554902 3.1344077645 3.1282026841 
3.1222192624 3.1161716463 3.1106033004 3.0937541863 3.0898639251 3.0848184115 3.0770437649 3.0670319357 3.0567637177 
3.0484620433 3.0406748767 3.0311146718 3.1043934583 3.1289999429 3.1454636772 3.1590182474 3.1690144719 3.1809350197 
3.1933746728 3.2034168386 3.2169754294 3.2308020675 3.2438543019 3.254073816 3.2608917609 3.2698340385 3.2749142444 
3.2772795925 3.278765466 3.2667129567 3.0725242418 3.071840699 3.0706974585 3.0664731158 3.0604189284 3.0520147621 
3.0439219498 3.0364075547 3.0301437622 3.0321793242 3.2796290982 3.2731241507 3.1257602025 3.2766674261 3.1191020861 
3.2809711406 3.0751283053 3.2653611816 3.106957132 3.1033021167 3.2779938916 3.0978115474 3.0718636553 3.0716872224 
3.1131557266 3.2782534014 3.280135546 3.0799904693 3.0722519394 3.0725986088 3.096693709 3.0210404683 3.0343764709 
3.0040580983 3.0105661047 2.9900466959 2.9987339729 3.0123816712 3.047268907 3.0695911022 3.0449485232 3.1007961722 
3.066678649 3.0853988349 3.1021801914 3.1141668923 3.1269817842 3.1398963641 3.1520470898 3.1618530022 3.1693261483 
3.1666943787 3.1594098407 3.1507990009 3.1426168003 3.1356130217 3.1292455289 3.1232058407 3.1170336091 3.1114298075 
3.0943916897 3.0904636439 3.0853443661 3.0775144592 3.0674071644 3.0571146549 3.0487402719 3.0409776455 3.0311329229 
3.1059433379 3.1304677952 3.1468919685 3.1605256551 3.1704684749 3.1824472885 3.1948849386 3.2049806239 3.218752242 
3.2323074927 3.2452954555 3.2553752922 3.2620765196 3.2708261542 3.2759490176 3.2783821383 3.279876805 3.1498994057 
3.0666251302 3.0668653399 3.0660068194 3.0622234745 3.0565599403 3.0485075204 3.0405968768 3.0335312374 3.0278990997 
3.0294361774 3.2808425311 3.2741571447 3.1268321022 3.2777023948 3.1200521863 3.2790922952 3.065505591 3.2664179372 
3.107754903 3.1040054221 3.2790963818 3.0985448047 3.0673655961 3.0669745312 3.1139698974 3.2793573706 3.2821924185 
3.0682805614 3.0666789958 3.0671188154 3.0973696888 3.0217430315 3.0344370942 3.0041577887 3.0106307996 2.9908837278 
2.9996824611 3.0131473467 3.0487597097 3.0709651054 3.0442691848 3.1015187906 3.0659648387 3.0846837565 3.1016259873 
3.1135777548 3.1264758382 3.1393246031 3.1522074962 3.1625647402 3.17041061 3.1687490468 3.1619547922 3.1527242949 
3.1440136875 3.136658633 3.130028971 3.1240656807 3.1175635162 3.1121567584 3.0950462016 3.0911431119 3.0859196448 
3.0780785316 3.0678182453 3.057478035 3.0489974796 3.0412531241 3.0306453028 3.1075859234 3.1321255679 3.1483870239 
3.162091233 3.1720036376 3.1839265886 3.1964762165 3.2066257504 3.2205052996 3.2338461988 3.2465796586 3.2569320244 
3.2634772315 3.2719695254 3.2774865632 3.2801509787 3.2817134325 3.0698313605 3.0666183365 3.0665744704 3.0663947576 
3.0629045896 3.0575501883 3.0491909675 3.0412159837 3.0343018987 3.028794732 3.0302961389 3.2827044415 3.275297303 
3.1277315168 3.2792531611 3.1208541221 3.2710467549 3.0655701724 3.2676347806 3.1085356076 3.1047823481 3.2806768058 
3.0992981131 3.0676591841 3.0672567872 3.114723038 3.2810957932 3.2870685493 3.0639562941 3.0665118948 3.0663731943 
3.0980067014 3.0229308672 3.0330357041 3.0032714751 3.0105583427 2.9906873467 2.9997409942 3.0135556587 3.0491162666 
3.071928844 3.0432133616 3.1022226497 3.0642500143 3.0832807352 3.1001093073 3.1121386694 3.1253281718 3.1377128551 
3.1525056199 3.162423214 3.1716299302 3.171552574 3.1651096785 3.1550563363 3.1455152654 3.1376476121 3.1308502455 
3.1246919436 3.1192567477 3.1132853936 3.0956697952 3.0917511857 3.0864543387 3.0785403438 3.0680809189 3.0576810942 
3.0490989946 3.0413195599 3.0294654062 3.1085829633 3.1334835182 3.1495341471 3.1630882817 3.173112219 3.1851392364 
3.1978266342 3.208101111 3.2220134402 3.235406357 3.248535733 3.2584182505 3.2652767432 3.2739172701 3.2807993323 
3.2832620047 3.2835796872 3.0715393646 3.0729141222 3.0718438432 3.0706076616 3.0672547393 3.0617060164 3.0530961535 
3.0451750683 3.0378043953 3.0322767504 3.0335341985 3.2843714988 3.2776506328 3.1285380216 3.2822569532 3.1215055965 
3.1631035254 3.0726024421 3.2693067644 3.1096152243 3.1055233921 3.2833570165 3.0999900489 3.0717919284 3.0721953469 
3.1161341783 3.2834589856 3.2876231167 3.0712612422 3.0726489048 3.0724986838 3.0983963262 3.0239242843 3.0319189782 
3.0009645624 3.005871891 2.989902759 2.9984144009 3.0128384987 3.048137543 3.0715891502 3.0410231051 3.1025032388 
3.0627183654 3.0818231169 3.0993113602 3.1109025303 3.1242323017 3.136131299 3.1534660079 3.1638777865 3.1743089169 
3.1769612394 3.1697834834 3.1583819739 3.1470041054 3.1384721761 3.1314106048 3.124916239 3.1189069968 3.1140947567 
3.0962164309 3.0921946767 3.0868554387 3.0791650266 3.06826122 3.0576653137 3.0488535049 3.0410891103 3.0274113304 
3.1086893605 3.1339834725 3.1504244265 3.1642473408 3.1743684658 3.1863625236 3.1989858844 3.2100934653 3.2246426862 
3.2385398681 3.2520465404 3.2649267514 3.2694370421 3.2776780056 3.2831617934 3.2835836109 3.2847066352 3.0679030367 
3.0771105358 3.0768128718 3.0761899004 3.0725720325 3.0667553234 3.0578479465 3.0501316685 3.0426876229 3.0365993806 
3.0386625879 3.2858969168 3.281077078 3.1286125196 3.283317917 3.1220016354 3.0519487002 3.0753471618 3.2729513 
3.1092885804 3.1056672108 3.2830622627 3.1004885249 3.0770966366 3.0775217239 3.1166448792 3.282808821 3.1299141833 
3.0730518837 3.0761396195 3.0768960598 3.0986484336 3.027326739 3.0336380804 3.0043661479 3.0083355565 2.9905101106 
3.0001144332 3.015073745 3.0491134146 3.0715917804 3.0443718543 3.1019942841 3.0645687474 3.0847083532 3.1000368432 
3.1129042366 3.1266123278 3.1385620342 3.1578390474 3.1792946881 3.1821341314 3.181072653 3.1723986036 3.1576962981 
3.1461075508 3.1374323931 3.1301559876 3.1238081014 3.1169348439 3.1117108523 3.0956571342 3.0933182669 3.0875447937 
3.0781245159 3.0684376179 3.0571335455 3.0479433672 3.0393863854 3.0249821464 3.1061998012 3.1337732723 3.1552096993 
3.1692397427 3.1783039721 3.1957284163 3.2045074326 3.215284666 3.2332889314 3.2456879246 3.2616081186 3.2705600837 