# vtk DataFile Version 4.2
vtk output
ASCII
DATASET POLYDATA
POINTS 6349 float
2459.06 -3198.16 5800 2464.84 -3204.74 5800 2483.75 -3198.16 5800 
2451 -3185.16 5800 2493.84 -3194.65 5800 2519.69 -3185.16 5800 
2444.2 -3172.16 5800 2522.84 -3183.9 5800 2547.16 -3172.16 5800 
2437.4 -3159.16 5800 2551.84 -3169.9 5800 2574.08 -3159.15 5800 
2430.81 -3146.16 5800 2435.84 -3156.13 5800 2580.85 -3155.89 5800 
2601 -3146.15 5800 2425.07 -3133.16 5800 2609.85 -3141.88 5800 
2627.92 -3133.15 5800 2419.33 -3120.16 5800 2638.85 -3127.87 5800 
2654.84 -3120.15 5800 2413.59 -3107.16 5800 2667.85 -3113.86 5800 
2681.76 -3107.15 5800 2407.85 -3094.16 5800 2696.85 -3099.86 5800 
2708.68 -3094.14 5800 2402.11 -3081.15 5800 2406.85 -3091.88 5800 
2725.86 -3085.85 5800 2735.6 -3081.14 5800 2396.37 -3068.15 5800 
2754.86 -3071.84 5800 2762.52 -3068.14 5800 2390.63 -3055.15 5800 
2783.86 -3057.83 5800 2789.44 -3055.14 5800 2384.89 -3042.15 5800 
2812.86 -3043.83 5800 2816.36 -3042.14 5800 2379.15 -3029.15 5800 
2835.88 -3029.14 5800 2373.41 -3016.15 5800 2377.85 -3026.21 5800 
2841.87 -3021.56 5800 2844.33 -3016.13 5800 2367.67 -3003.15 5800 
2850.25 -3003.13 5800 2361.93 -2990.15 5800 2856.17 -2990.13 5800 
2356.19 -2977.15 5800 2862.09 -2977.13 5800 2350.45 -2964.15 5800 
2868.01 -2964.13 5800 2344.71 -2951.15 5800 2348.85 -2960.53 5800 
2870.87 -2957.85 5800 2873.93 -2951.13 5800 2338.97 -2938.15 5800 
2879.85 -2938.13 5800 2333.23 -2925.14 5800 2885.77 -2925.13 5800 
2327.49 -2912.14 5800 2891.69 -2912.12 5800 2321.75 -2899.14 5800 
2897.61 -2899.12 5800 2316.01 -2886.14 5800 2319.86 -2894.86 5800 
2899.88 -2894.15 5800 2903.53 -2886.12 5800 2310.27 -2873.14 5800 
2909.45 -2873.12 5800 2304.53 -2860.14 5800 2915.37 -2860.12 5800 
2298.79 -2847.14 5800 2921.29 -2847.12 5800 2293.05 -2834.14 5800 
2927.21 -2834.12 5800 2287.31 -2821.14 5800 2290.86 -2829.18 5800 
2928.88 -2830.45 5800 2933.13 -2821.12 5800 2281.57 -2808.14 5800 
2939.05 -2808.11 5800 2275.83 -2795.14 5800 2944.97 -2795.11 5800 
2265.66 -2782.14 5800 2950.89 -2782.11 5800 2245.69 -2769.14 5800 
2261.86 -2779.58 5800 2956.81 -2769.11 5800 2225.55 -2756.14 5800 
2232.86 -2760.86 5800 2957.89 -2766.75 5800 2962.73 -2756.11 5800 
2205.42 -2743.14 5800 2968.65 -2743.11 5800 2185.29 -2730.13 5800 
2203.86 -2742.13 5800 2974.47 -2730.11 5800 2164.3 -2717.13 5800 
2174.87 -2723.41 5800 2979.89 -2717.11 5800 2141.19 -2704.13 5800 
2145.87 -2706.68 5800 2985.1 -2704.1 5800 2117.26 -2691.13 5800 
2986.9 -2699.49 5800 2990.13 -2691.1 5800 2093.34 -2678.13 5800 
2116.87 -2690.92 5800 2995.14 -2678.1 5800 2069.41 -2665.13 5800 
2087.87 -2675.16 5800 3000.15 -2665.1 5800 2045.49 -2652.13 5800 
2058.87 -2659.4 5800 3005.16 -2652.1 5800 2021.56 -2639.13 5800 
2029.87 -2643.65 5800 3010.17 -2639.1 5800 1997.63 -2626.13 5800 
2000.87 -2627.89 5800 3015.18 -2626.1 5800 1973.71 -2613.13 5800 
3015.9 -2624.22 5800 3020.19 -2613.1 5800 1966.07 -2600.13 5800 
1971.87 -2612.13 5800 3025.2 -2600.1 5800 1964.2 -2587.13 5800 
3030.21 -2587.09 5800 1964.46 -2574.13 5800 3035.22 -2574.09 5800 
1964.72 -2561.13 5800 3040.23 -2561.09 5800 1964.98 -2548.13 5800 
3044.91 -2548.95 5800 3045.24 -2548.09 5800 1965.25 -2535.13 5800 
3050.25 -2535.09 5800 1965.51 -2522.13 5800 3055.26 -2522.09 5800 
1965.77 -2509.13 5800 3062.94 -2509.09 5800 1966.03 -2496.12 5800 
3073.75 -2496.09 5800 1966.29 -2483.12 5800 3073.91 -2495.92 5800 
3086.79 -2483.08 5800 1966.55 -2470.12 5800 3099.84 -2470.08 5800 
1966.81 -2457.12 5800 3102.92 -2467.01 5800 3112.88 -2457.08 5800 
1967.08 -2444.12 5800 3125.93 -2444.08 5800 1967.34 -2431.12 5800 
3131.92 -2438.11 5800 3138.98 -2431.08 5800 1967.6 -2418.12 5800 
3152.02 -2418.08 5800 1967.86 -2405.12 5800 3160.92 -2409.21 5800 
3165.07 -2405.08 5800 1968.12 -2392.12 5800 3178.12 -2392.07 5800 
1968.38 -2379.11 5800 3189.93 -2380.3 5800 3191.16 -2379.07 5800 
1968.65 -2366.11 5800 3204.21 -2366.07 5800 1968.91 -2353.11 5800 
3217.25 -2353.07 5800 1969.17 -2340.11 5800 3218.93 -2351.4 5800 
3227.75 -2340.07 5800 1969.43 -2327.11 5800 3233.7 -2327.07 5800 
1969.69 -2314.11 5800 3235.93 -2314.07 5800 1969.95 -2301.11 5800 
3237.34 -2301.07 5800 1970.21 -2288.11 5800 3238.76 -2288.06 5800 
1970.48 -2275.11 5800 3240.17 -2275.06 5800 1970.74 -2262.11 5800 
3241.58 -2262.06 5800 1971 -2249.1 5800 3243 -2249.06 5800 
1971.26 -2236.1 5800 3244.41 -2236.06 5800 1971.52 -2223.1 5800 
3245.82 -2223.06 5800 1971.78 -2210.1 5800 3247.24 -2210.06 5800 
1971.9 -2204.34 5800 1972.04 -2197.1 5800 3247.94 -2203.58 5800 
3248.65 -2197.06 5800 1972.4 -2184.1 5800 3250.06 -2184.06 5800 
1972.8 -2171.1 5800 3251.48 -2171.05 5800 1973.2 -2158.1 5800 
3252.89 -2158.05 5800 1973.59 -2145.1 5800 3254.3 -2145.05 5800 
1973.99 -2132.1 5800 3255.72 -2132.05 5800 1974.39 -2119.09 5800 
3257.13 -2119.05 5800 1974.79 -2106.09 5800 3258.54 -2106.05 5800 
1975.19 -2093.09 5800 3259.96 -2093.05 5800 1975.59 -2080.09 5800 
3261.37 -2080.05 5800 1975.99 -2067.09 5800 3262.79 -2067.05 5800 
1976.39 -2054.09 5800 3264.2 -2054.05 5800 1976.78 -2041.09 5800 
3265.61 -2041.04 5800 1976.93 -2028.09 5800 3267.03 -2028.04 5800 
1973.77 -2015.09 5800 3268.44 -2015.04 5800 1970.67 -2002.09 5800 
1971.91 -2007.29 5800 3269.85 -2002.04 5800 1967.58 -1989.09 5800 
3271.27 -1989.04 5800 1964.48 -1976.08 5800 3272.68 -1976.04 5800 
1961.39 -1963.08 5800 3274.09 -1963.04 5800 1958.29 -1950.08 5800 
3275.51 -1950.04 5800 1955.19 -1937.08 5800 3276.92 -1937.04 5800 
1952.1 -1924.08 5800 3276.96 -1936.62 5800 3277.97 -1924.04 5800 
1949 -1911.08 5800 3278.89 -1911.03 5800 1945.9 -1898.08 5800 
3279.64 -1898.03 5800 1942.81 -1885.08 5800 1942.92 -1885.56 5800 
3280.37 -1885.03 5800 1939.71 -1872.08 5800 3281.09 -1872.03 5800 
1936.61 -1859.08 5800 3281.79 -1859.03 5800 1933.52 -1846.08 5800 
3282.48 -1846.03 5800 1930.42 -1833.07 5800 3283.15 -1833.03 5800 
1927.33 -1820.07 5800 3283.81 -1820.03 5800 1924.23 -1807.07 5800 
3284.46 -1807.03 5800 1921.13 -1794.07 5800 3285.09 -1794.02 5800 
1918.04 -1781.07 5800 3285.71 -1781.02 5800 1921.29 -1768.07 5800 
3286.32 -1768.02 5800 1923.65 -1755.07 5800 3286.92 -1755.02 5800 
1925.79 -1742.07 5800 3287.51 -1742.02 5800 1929.13 -1729.07 5800 
3288.13 -1729.02 5800 1932.47 -1716.07 5800 3288.53 -1716.02 5800 
1935.81 -1703.06 5800 3288.93 -1703.02 5800 1939.15 -1690.06 5800 
3289.33 -1690.02 5800 1942.49 -1677.06 5800 3289.73 -1677.02 5800 
1942.94 -1675.33 5800 1945.83 -1664.06 5800 3290.13 -1664.01 5800 
1949.17 -1651.06 5800 3290.52 -1651.01 5800 1952.51 -1638.06 5800 
3290.92 -1638.01 5800 1955.85 -1625.06 5800 3291.32 -1625.01 5800 
1959.19 -1612.06 5800 3291.72 -1612.01 5800 1962.53 -1599.06 5800 
3292.12 -1599.01 5800 1965.87 -1586.05 5800 3289.63 -1586.01 5800 
1969.21 -1573.05 5800 3285.3 -1573.01 5800 1971.95 -1562.4 5800 
1972.57 -1560.05 5800 3281.45 -1560.01 5800 1976.01 -1547.05 5800 
3279.25 -1547.01 5800 1979.43 -1534.05 5800 3279 -1534 5800 
1982.83 -1521.05 5800 3279.52 -1521 5800 1986.26 -1508.05 5800 
3279.96 -1508 5800 1989.69 -1495.05 5800 3280.34 -1495 5800 
1991.27 -1482.05 5800 3280.68 -1482 5800 1992.33 -1469.04 5800 
3280.97 -1469 5800 1993.52 -1456.04 5800 3281.23 -1456 5800 
1994.71 -1443.04 5800 3281.46 -1443 5800 1995.9 -1430.04 5800 
3281.67 -1430 5800 1997.09 -1417.04 5800 3282.11 -1417 5800 
1998.28 -1404.04 5800 3282.55 -1403.99 5800 1999.47 -1391.04 5800 
3282.99 -1390.99 5800 2000.66 -1378.04 5800 3283.42 -1377.99 5800 
2000.96 -1374.67 5800 2001.84 -1365.04 5800 3283.86 -1364.99 5800 
2003.03 -1352.03 5800 3284.3 -1351.99 5800 2004.22 -1339.03 5800 
3284.73 -1338.99 5800 2005.38 -1326.03 5800 3285.17 -1325.99 5800 
2006.08 -1313.03 5800 3285.61 -1312.99 5800 2006.73 -1300.03 5800 
3286.04 -1299.99 5800 2007.39 -1287.03 5800 3286.48 -1286.99 5800 
2008.04 -1274.03 5800 3286.92 -1273.98 5800 2008.7 -1261.03 5800 
3287.36 -1260.98 5800 2009.35 -1248.03 5800 3287.79 -1247.98 5800 
2010.01 -1235.03 5800 3288.23 -1234.98 5800 2010.66 -1222.02 5800 
3288.67 -1221.98 5800 2011.32 -1209.02 5800 3289.1 -1208.98 5800 
2011.97 -1196.02 5800 3289.54 -1195.98 5800 2012.63 -1183.02 5800 
3289.98 -1182.98 5800 2013.28 -1170.02 5800 3290.44 -1169.98 5800 
2013.94 -1157.02 5800 3290.93 -1156.98 5800 2014.59 -1144.02 5800 
3291.43 -1143.97 5800 2015.25 -1131.02 5800 3291.93 -1130.97 5800 
2015.89 -1118.02 5800 3292.43 -1117.97 5800 2015.04 -1105.02 5800 
3292.96 -1104.97 5800 2014.92 -1092.01 5800 3293.52 -1091.97 5800 
2014.82 -1079.01 5800 3293.51 -1078.97 5800 2015.68 -1066.01 5800 
3293.41 -1065.97 5800 2019.39 -1053.01 5800 3293.35 -1052.97 5800 
2022.04 -1040.01 5800 3293.29 -1039.97 5800 2024.81 -1027.01 5800 
3293.23 -1026.97 5800 2027.7 -1014.01 5800 3293.17 -1013.96 5800 
2029.99 -1004.12 5800 2030.46 -1001.01 5800 3293.11 -1000.96 5800 
2032.4 -988.006 5800 3293.17 -987.962 5800 2034.35 -975.005 5800 
2553.12 -974.987 5800 2581.01 -980.492 5800 2610.01 -975.597 5800 
2614.51 -974.985 5800 3293.27 -974.961 5800 2036.3 -962.004 5800 
2530.63 -961.987 5800 2552.01 -974.822 5800 2639.02 -971.645 5800 
2668.02 -967.692 5800 2697.02 -963.739 5800 2709.92 -961.981 5800 
3293.36 -961.96 5800 2038.24 -949.003 5800 2511.49 -948.986 5800 
2523.01 -956.129 5800 2726.02 -959.902 5800 2755.02 -956.81 5800 
2760.09 -948.978 5800 3293.06 -948.959 5800 2040.19 -936.002 5800 
2490.43 -935.986 5800 2494.01 -938.156 5800 2766.26 -935.977 5800 
3291.22 -935.958 5800 2041.9 -923.001 5800 2468.3 -922.986 5800 
2772.2 -922.975 5800 3289.77 -922.958 5800 2043.65 -910 5800 
2446.05 -909.986 5800 2465.01 -921.066 5800 2778.36 -909.974 5800 
3287.96 -909.957 5800 2045.45 -896.998 5800 2423.8 -896.985 5800 
2436.01 -904.121 5800 2784.03 -898.019 5800 2784.56 -896.973 5800 
3285.11 -896.956 5800 2047.31 -883.997 5800 2404.73 -883.985 5800 
2407.01 -887.176 5800 2790.98 -883.972 5800 3282.27 -883.955 5800 
2049.22 -870.996 5800 2396.55 -870.984 5800 2797.13 -870.971 5800 
3279.42 -870.954 5800 2051.18 -857.995 5800 2390.81 -857.984 5800 
[...]
POINT_DATA 6349
SCALARS Pressure double
LOOKUP_TABLE default
3.0932710339 3.0932710339 3.0932710339 3.0932710339 3.0932710339 3.0932710339 3.0932710339 3.0932710339 3.0932710339 
3.0932710339 3.0932710339 3.0932710339 3.0932710339 3.0932710339 3.0932710339 3.0932710339 3.0932710339 3.0932710339 
3.0932710339 3.0932710339 3.0932710339 3.0932710339 3.0932710339 3.0932710339 3.0932710339 3.0932710339 3.0932710339 
3.0932710339 3.0932710339 3.0932710339 3.0932710339 3.0932710339 3.0932710339 3.0932710339 3.0932710339 3.0932710339 
3.0932710339 3.0932710339 3.0932710339 3.0932710339 3.0932710339 3.0932710339 3.0932710339 3.0932710339 3.0932710339 
3.0932710339 3.0932710339 3.0932710339 3.0932710339 3.0932710339 3.0932710339 3.0932710339 3.0932710339 3.0932710339 
3.0932710339 3.0932710339 3.0932710339 3.0932710339 3.0932710339 3.0932710339 3.0932710339 3.0932710339 3.0932710339 
3.0932710339 3.0932710339 3.0932710339 3.0932710339 3.0932710339 3.0932710339 3.0932710339 3.0932710339 3.0932710339 
3.0932710339 3.0932710339 3.0932710339 3.0932710339 3.0932710339 3.0932710339 3.0932710339 3.0932710339 3.0932710339 
3.0932710339 3.0932710339 3.0932710339 3.0932710339 3.0932710339 3.0932710339 3.0932710339 3.0932710339 3.0932710339 
3.0932710339 3.0932710339 3.0932710339 3.0932710339 3.0932710339 3.0932710339 3.0932710339 3.0932710339 3.0932710339 
3.0932710339 3.0932710339 3.0932710339 3.0932710339 3.0932710339 3.0932710339 3.0932710339 3.0932710339 3.0932710339 
3.0932710339 3.0932710339 3.0932710339 3.0932710339 3.0932710339 3.0932710339 3.0932710339 3.0932710339 3.0932710339 
3.0932710339 3.0932710339 3.0932710339 3.0932710339 3.0932710339 3.0932710339 3.0932710339 3.0932710339 3.0932710339 
3.0932710339 3.0932710339 3.0932710339 3.0932710339 3.0932710339 3.0932710339 3.0932710339 3.0932710339 3.0932710339 
3.0932710339 3.0932710339 3.0932710339 3.0932710339 3.0932710339 3.0932710339 3.0932710339 3.0932710339 3.0932710339 
3.0932710339 3.0932710339 3.0932710339 3.0932710339 3.0932710339 3.0932710339 3.0932710339 3.0932710339 3.0932710339 
3.0932710339 3.0932710339 3.0932710339 3.0932710339 3.0932710339 3.0932710339 3.0932710339 3.0932710339 3.0932710339 
3.0932710339 3.0932710339 3.0932710339 3.0932710339 3.0932710339 3.0932710339 3.0932710339 3.0932710339 3.0932710339 
3.0932710339 3.0932710339 3.0932710339 3.0932710339 3.0932710339 3.0932710339 3.0932710339 3.0932710339 3.0932710339 
3.0932710339 3.0932710339 3.0932710339 3.0932710339 3.0932710339 3.0932710339 3.0932710339 3.0932710339 3.0932710339 
3.0932710339 3.0932710339 3.0932710339 3.0932710339 3.0932710339 3.0932710339 3.0932710339 3.0932710339 3.0932710339 
3.0932710339 3.0932710339 3.0932710339 3.0932710339 3.0932710339 3.0932710339 3.0932710339 3.0932710339 3.0932710339 
3.0932710339 3.0932710339 3.0932710339 3.0932710339 3.0932710339 3.0932710339 3.0932710339 3.0932710339 3.0932710339 
3.0932710339 3.0932710339 3.0932710339 3.0932710339 3.0932710339 3.0932710339 3.0932710339 3.0932710339 3.0932710339 
3.0932710339 3.0932710339 3.0932710339 3.0932710339 3.0932710339 3.0932710339 3.0932710339 3.0932710339 3.0932710339 
3.0932710339 3.0932710339 3.0932710339 3.0932710339 3.0932710339 3.0932710339 3.0932710339 3.0932710339 3.0932710339 
3.0932710339 3.0932710339 3.0932710339 3.0932710339 3.0932710339 3.0932710339 3.0932710339 3.0932710339 3.0932710339 
3.0932710339 3.0932710339 3.0932710339 3.0932710339 3.0932710339 3.0932710339 3.0932710339 3.0932710339 3.0932710339 
3.0932710339 3.0932710339 3.0932710339 3.0932710339 3.0932710339 3.0932710339 3.0932710339 3.0932710339 3.0932710339 
3.0932710339 3.0932710339 3.0932710339 3.0932710339 3.0932710339 3.0932710339 3.0932710339 3.0932710339 3.0932710339 
3.0932710339 3.0932710339 3.0932710339 3.0932710339 3.0932710339 3.0932710339 3.0932710339 3.0932710339 3.0932710339 
3.0932710339 3.0932710339 3.0932710339 3.0932710339 3.0932710339 3.0932710339 3.0932710339 3.0932710339 3.0932710339 
3.0932710339 3.0932710339 3.0932710339 3.0932710339 3.0932710339 3.0932710339 3.0932710339 3.0932710339 3.0932710339 
3.0932710339 3.0932710339 3.0932710339 3.0932710339 3.0932710339 3.0932710339 3.0932710339 3.0932710339 3.0932710339 
3.0932710339 3.0932710339 3.0932710339 3.0932710339 3.0932710339 3.0932710339 3.0932710339 3.0932710339 3.0932710339 
3.0932710339 3.0932710339 3.0932710339 3.0932710339 3.0932710339 3.0932710339 3.0932710339 3.0932710339 3.0932710339 
3.0932710339 3.0932710339 3.0932710339 3.0932710339 3.0932710339 3.0932710339 3.0932710339 3.0932710339 3.0932710339 
3.0932710339 3.0932710339 3.0932710339 3.0932710339 3.0932710339 3.0932710339 3.0932710339 3.0932710339 3.0932710339 
3.0932710339 3.0932710339 3.0932710339 3.0932710339 3.0932710339 3.0932710339 3.0932710339 3.0932710339 3.0932710339 
3.0932710339 3.0932710339 3.0932710339 3.0932710339 3.0932710339 3.0932710339 3.0932710339 3.0932710339 3.0932710339 
3.0932710339 3.0932710339 3.0932710339 3.0932710339 3.0932710339 3.0932710339 3.0932710339 3.0932710339 3.0932710339 
3.0932710339 3.0932710339 3.0932710339 3.0932710339 3.0932710339 3.0932710339 3.0932710339 3.0932710339 3.0932710339 
3.0932710339 3.0932710339 3.0932710339 3.0932710339 3.0932710339 3.0932710339 3.0932710339 3.0932710339 3.0932710339 
3.1078652246 3.1078652246 3.1078652246 3.1078652246 3.0932710339 3.0932710339 3.1078652246 3.1078652246 3.1078652246 
3.1078652246 3.1078652246 3.1078652246 3.0932710339 3.0932710339 3.1078652246 3.1078652246 3.1078652246 3.1078652246 
3.1078652246 3.0932710339 3.0932710339 3.1078652246 3.1078652246 3.1078652246 3.0932710339 3.0932710339 3.1078652246 
3.1078652246 3.0932710339 3.0932710339 3.1078652246 3.1078652246 3.1078652246 3.0932710339 3.0932710339 3.1078652246 
3.1078652246 3.1078652246 3.1078652246 3.0932710339 3.0932710339 3.1078652246 3.1078652246 3.1078652246 3.0932710339 
3.0932710339 3.1078652246 3.1078652246 3.0932710339 3.0932710339 3.1078652246 3.1078652246 3.0932710339 3.0932710339 
3.0932710339 3.1078652246 3.1078652246 3.0932710339 3.0932710339 3.1078652246 3.1078652246 3.1078652246 3.0932710339 
3.0932710339 3.1078652246 3.1078652246 3.1078652246 3.0932710339 3.0932710339 3.0932710339 3.1078652246 3.1078652246 
3.0932710339 3.0932710339 3.1078652246 3.1078652246 3.0932710339 3.0932710339 3.1078652246 3.1078652246 3.1078652246 
3.1078652246 3.0932710339 3.0932710339 3.1078652246 3.1078652246 3.0932710339 3.0932710339 3.1078652246 3.1078652246 
3.1078652246 3.0932710339 3.0932710339 3.1078652246 3.1078652246 3.1078652246 3.0932710339 3.0932710339 3.1078652246 
3.1078652246 3.0932710339 3.0932710339 3.0932710339 3.1078652246 3.1078652246 3.0932710339 3.0932710339 3.1078652246 
3.1078652246 3.1078652246 3.0932710339 3.0932710339 3.1078652246 3.1078652246 3.0932710339 3.0932710339 3.1078652246 
3.1078652246 3.0932710339 3.0932710339 3.1078652246 3.1078652246 3.1078652246 3.0932710339 3.0932710339 3.1078652246 
3.1078652246 3.0932710339 3.0932710339 3.1078652246 3.1078652246 3.1078652246 3.0932710339 3.0932710339 3.1078652246 
3.1224594153 3.1224594153 3.1224594153 3.1078652246 3.0932710339 3.0932710339 3.1078652246 3.1224594153 3.1224594153 
3.1224594153 3.1078652246 3.0932710339 3.0932710339 3.1078652246 3.1224594153 3.1224594153 3.1224594153 3.1224594153 
3.1224594153 3.1078652246 3.0932710339 3.0932710339 3.1078652246 3.1224594153 3.1224594153 3.1224594153 3.1224594153 
3.1078652246 3.0932710339 3.0932710339 3.0932710339 3.1078652246 3.1224594153 3.1224594153 3.1078652246 3.0932710339 
3.0932710339 3.1078652246 3.1224594153 3.1224594153 3.1224594153 3.1224594153 3.1078652246 3.1078652246 3.0932710339 
3.0932710339 3.1078652246 3.1224594153 3.1224594153 3.1078652246 3.0932710339 3.0932710339 3.1078652246 3.1078652246 
3.1224594153 3.1224594153 3.1224594153 3.1224594153 3.1078652246 3.0932710339 3.0932710339 3.1078652246 3.1224594153 
3.1224594153 3.1078652246 3.0932710339 3.0932710339 3.0932710339 3.1078652246 3.1224594153 3.1224594153 3.1224594153 
3.1078652246 3.1078652246 3.0932710339 3.0932710339 3.1078652246 3.1224594153 3.1224594153 3.1224594153 3.1078652246 
3.0932710339 3.0786768432 3.0786768432 3.0786768432 3.0786768432 3.0932710339 3.1078652246 3.1224594153 3.1224594153 
3.1078652246 3.0932710339 3.0786768432 3.0786768432 3.0786768432 3.0932710339 3.1078652246 3.1224594153 3.1224594153 
3.1224594153 3.1078652246 3.0932710339 3.0786768432 3.0786768432 3.0786768432 3.0786768432 3.0786768432 3.0786768432 
3.0786768432 3.0786768432 3.0786768432 3.0786768432 3.0786768432 3.0932710339 3.1078652246 3.1078652246 3.1224594153 
3.1224594153 3.1224594153 3.1078652246 3.0932710339 3.0786768432 3.0786768432 3.0786768432 3.0786768432 3.0786768432 
3.0786768432 3.0786768432 3.0932710339 3.1078652246 3.1224594153 3.1224594153 3.1078652246 3.0932710339 3.0786768432 
3.0786768432 3.0786768432 3.0786768432 3.0786768432 3.0786768432 3.0786768432 3.0932710339 3.1078652246 3.1224594153 
3.1224594153 3.1224594153 3.1078652246 3.1078652246 3.0932710339 3.0786768432 3.0786768432 3.0786768432 3.0786768432 
3.0786768432 3.0786768432 3.0932710339 3.0932710339 3.1078652246 3.1224594153 3.137053606 3.137053606 3.137053606 
3.137053606 3.1224594153 3.1078652246 3.0932710339 3.0786768432 3.0786768432 3.0786768432 3.0786768432 3.0786768432 
3.0786768432 3.0932710339 3.1078652246 3.1224594153 3.137053606 3.137053606 3.137053606 3.137053606 3.1224594153 
3.1078652246 3.0932710339 3.0786768432 3.0786768432 3.0786768432 3.0786768432 3.0786768432 3.0786768432 3.0932710339 
3.1078652246 3.1224594153 3.1224594153 3.137053606 3.137053606 3.137053606 3.137053606 3.1224594153 3.1078652246 
3.0932710339 3.0786768432 3.0786768432 3.0786768432 3.0786768432 3.0786768432 3.0932710339 3.1078652246 3.1224594153 
3.137053606 3.137053606 3.137053606 3.1224594153 3.1224594153 3.1078652246 3.0932710339 3.0786768432 3.0786768432 
3.0786768432 3.0786768432 3.0786768432 3.0786768432 3.0932710339 3.1078652246 3.1224594153 3.137053606 3.137053606 
3.137053606 3.1224594153 3.1078652246 3.1078652246 3.0932710339 3.0786768432 3.0786768432 3.0786768432 3.0786768432 
3.0786768432 3.0786768432 3.0786768432 3.0932710339 3.1078652246 3.1224594153 3.137053606 3.137053606 3.137053606 
3.1224594153 3.1078652246 3.0932710339 3.0786768432 3.0786768432 3.0786768432 3.0786768432 3.0786768432 3.0932710339 
3.1078652246 3.1224594153 3.137053606 3.137053606 3.1224594153 3.1078652246 3.0932710339 3.0786768432 3.0786768432 
3.0786768432 3.0786768432 3.0786768432 3.0786768432 3.0932710339 3.1078652246 3.1224594153 3.1224594153 3.137053606 
3.137053606 3.1224594153 3.1224594153 3.1078652246 3.0932710339 3.0786768432 3.0786768432 3.0786768432 3.0786768432 
3.0932710339 3.1078652246 3.1224594153 3.137053606 3.137053606 3.137053606 3.137053606 3.1224594153 3.1078652246 
3.0932710339 3.0786768432 3.0786768432 3.0786768432 3.0786768432 3.0786768432 3.0786768432 3.0932710339 3.1078652246 
3.1224594153 3.137053606 3.137053606 3.1224594153 3.1078652246 3.0932710339 3.0786768432 3.0786768432 3.0786768432 
3.0786768432 3.0786768432 3.0786768432 3.0932710339 3.1078652246 3.1224594153 3.137053606 3.137053606 3.1224594153 
3.1078652246 3.0932710339 3.0932710339 3.0786768432 3.0786768432 3.0786768432 3.0786768432 3.0932710339 3.1078652246 
3.1078652246 3.1224594153 3.137053606 3.137053606 3.1516477967 3.1516477967 3.1516477967 3.1516477967 3.137053606 
3.1224594153 3.1224594153 3.1078652246 3.0932710339 3.0932710339 3.0786768432 3.0786768432 3.0786768432 3.0786768432 
3.0786768432 3.0932710339 3.1078652246 3.1224594153 3.137053606 3.1516477967 3.1516477967 3.1516477967 3.1516477967 
3.137053606 3.137053606 3.1224594153 3.1078652246 3.1078652246 3.0932710339 3.0786768432 3.0786768432 3.0786768432 
3.0786768432 3.0786768432 3.0786768432 3.0932710339 3.1078652246 3.1224594153 3.1224594153 3.137053606 3.1516477967 
3.1516477967 3.1516477967 3.1516477967 3.137053606 3.1224594153 3.1078652246 3.0932710339 3.0786768432 3.0786768432 
3.0786768432 3.0786768432 3.0932710339 3.1078652246 3.1224594153 3.137053606 3.137053606 3.1516477967 3.1516477967 
3.1516477967 3.137053606 3.1224594153 3.1078652246 3.0932710339 3.0786768432 3.0786768432 3.0786768432 3.0786768432 
3.0932710339 3.1078652246 3.1224594153 3.137053606 3.1516477967 3.1516477967 3.137053606 3.1224594153 3.1078652246 
3.0932710339 3.0786768432 3.0786768432 3.0786768432 3.0786768432 3.0932710339 3.1078652246 3.1224594153 3.137053606 
3.1516477967 3.1516477967 3.1516477967 3.1516477967 3.137053606 3.1224594153 3.1078652246 3.0932710339 3.0786768432 
3.0786768432 3.0786768432 3.0640826525 3.0640826525 3.0640826525 3.0640826525 3.0786768432 3.0786768432 3.0932710339 
3.1078652246 3.1224594153 3.137053606 3.1516477967 3.1516477967 3.137053606 3.137053606 3.1224594153 3.1078652246 
3.0932710339 3.0786768432 3.0786768432 3.0786768432 3.0786768432 3.0786768432 3.0640826525 3.0640826525 3.0640826525 
3.0640826525 3.0640826525 3.0640826525 3.0640826525 3.0786768432 3.0932710339 3.1078652246 3.1224594153 3.1224594153 
3.137053606 3.137053606 3.1516477967 3.1516477967 3.137053606 3.1224594153 3.1078652246 3.0932710339 3.0786768432 
3.0786768432 3.0786768432 3.0640826525 3.0640826525 3.0786768432 3.0932710339 3.1078652246 3.1224594153 3.137053606 
3.1516477967 3.1516477967 3.1516477967 3.137053606 3.1224594153 3.1078652246 3.0932710339 3.0786768432 3.0786768432 
3.0786768432 3.0640826525 3.0640826525 3.0640826525 3.0786768432 3.0932710339 3.1078652246 3.1224594153 3.137053606 
3.1516477967 3.1662419875 3.1662419875 3.1662419875 3.1516477967 3.137053606 3.1224594153 3.1078652246 3.0932710339 
3.0786768432 3.0786768432 3.0786768432 3.0786768432 3.0640826525 3.0640826525 3.0640826525 3.0786768432 3.0932710339 
3.1078652246 3.1224594153 3.137053606 3.137053606 3.1516477967 3.1516477967 3.1662419875 3.1662419875 3.1662419875 
3.1662419875 3.1662419875 3.1516477967 3.137053606 3.1224594153 3.1078652246 3.0932710339 3.0786768432 3.0786768432 
3.0786768432 3.0786768432 3.0786768432 3.0640826525 3.0640826525 3.0640826525 3.0786768432 3.0932710339 3.1078652246 
3.1224594153 3.137053606 3.1516477967 3.1662419875 3.1662419875 3.1662419875 3.1516477967 3.1516477967 3.137053606 
3.1224594153 3.1078652246 3.0932710339 3.0786768432 3.0786768432 3.0786768432 3.0640826525 3.0640826525 3.0786768432 
3.0932710339 3.1078652246 3.1078652246 3.1224594153 3.137053606 3.1516477967 3.1516477967 3.1662419875 3.1662419875 
3.1662419875 3.1516477967 3.137053606 3.1224594153 3.1078652246 3.1078652246 3.0932710339 3.0786768432 3.0786768432 
3.0786768432 3.0640826525 3.0494884618 3.0494884618 3.0494884618 3.0640826525 3.0786768432 3.0932710339 3.1078652246 
3.1224594153 3.1224594153 3.137053606 3.1516477967 3.1662419875 3.1662419875 3.1662419875 3.1516477967 3.137053606 
3.1224594153 3.1078652246 3.0932710339 3.0786768432 3.0786768432 3.0786768432 3.0786768432 3.0786768432 3.0786768432 
3.0786768432 3.0640826525 3.0494884618 3.0494884618 3.0494884618 3.0494884618 3.0494884618 3.0640826525 3.0640826525 
3.0786768432 3.0786768432 3.0932710339 3.1078652246 3.1224594153 3.137053606 3.137053606 3.1516477967 3.1662419875 
3.1662419875 3.1662419875 3.1516477967 3.1516477967 3.137053606 3.1224594153 3.1078652246 3.0932710339 3.0932710339 
3.0786768432 3.0786768432 3.0786768432 3.0786768432 3.0786768432 3.0786768432 3.0640826525 3.0640826525 3.0494884618 
3.0494884618 3.0494884618 3.0640826525 3.0786768432 3.0932710339 3.1078652246 3.1224594153 3.137053606 3.1516477967 
3.1516477967 3.1662419875 3.1662419875 3.1516477967 3.137053606 3.1224594153 3.1078652246 3.0932710339 3.0786768432 
3.0786768432 3.0640826525 3.0640826525 3.0640826525 3.0640826525 3.0640826525 3.0786768432 3.0786768432 3.0786768432 
3.0640826525 3.0494884618 3.0494884618 3.0494884618 3.0640826525 3.0786768432 3.0932710339 3.1078652246 3.1224594153 
3.137053606 3.1516477967 3.1662419875 3.1662419875 3.1516477967 3.137053606 3.137053606 3.1224594153 3.1078652246 
3.0932710339 3.0786768432 3.0640826525 3.0640826525 3.0640826525 3.0786768432 3.0786768432 3.0640826525 3.0494884618 
3.0348942711 3.0348942711 3.0348942711 3.0494884618 3.0640826525 3.0786768432 3.0932710339 3.1078652246 3.1224594153 
3.1224594153 3.137053606 3.1516477967 3.1662419875 3.1662419875 3.1662419875 3.1516477967 3.137053606 3.1224594153 
3.1078652246 3.0932710339 3.0786768432 3.0640826525 3.0640826525 3.0640826525 3.0786768432 3.0786768432 3.0786768432 
3.0640826525 3.0494884618 3.0348942711 3.0348942711 3.0348942711 3.0348942711 3.0494884618 3.0494884618 3.0640826525 
3.0786768432 3.0786768432 3.0932710339 3.1078652246 3.1224594153 3.137053606 3.137053606 2.9619233175 2.9619233175 
2.9765175082 2.9765175082 2.991111699 2.991111699 3.0057058897 3.0057058897 3.0203000804 3.0203000804 3.0348942711 
3.0348942711 3.0494884618 3.0494884618 3.0640826525 3.0640826525 3.0786768432 3.0786768432 3.0932710339 3.0932710339 
3.1078652246 3.1078652246 3.1224594153 3.1224594153 3.137053606 3.137053606 3.1516477967 2.9619233175 2.9765175082 
2.991111699 3.0057058897 3.0203000804 3.0348942711 3.0494884618 3.0640826525 3.0786768432 3.0932710339 3.1078652246 
3.1224594153 3.137053606 3.1516477967 2.9619233175 2.9765175082 2.991111699 3.0057058897 3.0203000804 3.0348942711 
3.0494884618 3.0640826525 3.0786768432 3.0932710339 3.1078652246 3.1224594153 3.137053606 3.1516477967 3.1662419875 
2.9619233175 2.9765175082 2.991111699 3.0057058897 3.0203000804 3.0348942711 3.0494884618 3.0640826525 3.0786768432 
3.0932710339 3.1078652246 3.1224594153 3.137053606 3.1516477967 3.1662419875 2.9619233175 2.9765175082 2.991111699 
3.0057058897 3.0203000804 3.0348942711 3.0494884618 3.0640826525 3.0786768432 3.0932710339 3.1078652246 3.1224594153 
3.137053606 3.1516477967 3.1662419875 2.9619233175 2.9765175082 2.991111699 3.0057058897 3.0203000804 3.0348942711 
3.0494884618 3.0640826525 3.0786768432 3.0932710339 3.1078652246 3.1224594153 3.137053606 3.1516477967 3.1662419875 
2.9619233175 2.9765175082 2.991111699 3.0057058897 3.0203000804 3.0348942711 3.0494884618 3.0640826525 3.0786768432 
3.0932710339 3.1078652246 3.1224594153 3.137053606 3.1516477967 3.1662419875 2.9619233175 2.9765175082 2.991111699 
3.0057058897 3.0203000804 3.0348942711 3.0494884618 3.0640826525 3.0786768432 3.0932710339 3.1078652246 3.1224594153 
3.137053606 3.1516477967 3.1662419875 2.9619233175 2.9765175082 2.991111699 3.0057058897 3.0203000804 3.0348942711 
3.0494884618 3.0640826525 3.0786768432 3.0932710339 3.1078652246 3.1224594153 3.137053606 3.1516477967 3.1662419875 
2.9619233175 2.9765175082 2.991111699 3.0057058897 3.0203000804 3.0348942711 3.0494884618 3.0640826525 3.0786768432 
3.0932710339 3.1078652246 3.1224594153 3.137053606 3.1516477967 3.1662419875 2.9619233175 2.9765175082 2.991111699 
3.0057058897 3.0203000804 3.0348942711 3.0494884618 3.0640826525 3.0786768432 3.0932710339 3.1078652246 3.1224594153 
3.137053606 3.1516477967 3.1662419875 2.9619233175 2.9765175082 2.991111699 3.0057058897 3.0203000804 3.0348942711 
3.0494884618 3.0640826525 3.0786768432 3.0932710339 3.1078652246 3.1224594153 3.137053606 3.1516477967 2.9619233175 
2.9765175082 2.991111699 3.0057058897 3.0203000804 3.0348942711 3.0494884618 3.0640826525 3.0786768432 3.0932710339 
3.1078652246 3.1224594153 3.137053606 3.1516477967 2.9619233175 2.9765175082 2.991111699 3.0057058897 3.0203000804 
3.0348942711 3.0494884618 3.0640826525 3.0786768432 3.0932710339 3.1078652246 3.1224594153 3.137053606 2.9619233175 
2.9765175082 2.991111699 3.0057058897 3.0203000804 3.0348942711 3.0494884618 3.0640826525 3.0786768432 3.0932710339 
3.1078652246 3.1224594153 3.137053606 2.9619233175 2.9765175082 2.991111699 3.0057058897 3.0203000804 3.0348942711 
3.0494884618 3.0640826525 3.0786768432 3.0932710339 3.1078652246 3.1224594153 3.137053606 2.9619233175 2.9765175082 
2.991111699 3.0057058897 3.0203000804 3.0348942711 3.0494884618 3.0640826525 3.0786768432 3.0932710339 3.1078652246 