# vtk DataFile Version 4.2
vtk output
ASCII
DATASET POLYDATA
POINTS 7031 float
1543.41 -3417.16 0 1553.84 -3423.98 0 1567.13 -3417.16 0 
1523.67 -3400.16 0 1590.84 -3404.98 0 1600.23 -3400.16 0 
1511.12 -3383.16 0 1516.84 -3392.51 0 1627.84 -3385.97 0 
1633.33 -3383.15 0 1500.73 -3366.16 0 1664.85 -3366.96 0 
1666.42 -3366.15 0 1490.33 -3349.16 0 1699.52 -3349.15 0 
1479.93 -3332.16 0 1701.85 -3347.96 0 1732.62 -3332.15 0 
1469.53 -3315.16 0 1479.84 -3332.02 0 1738.85 -3328.95 0 
1765.72 -3315.15 0 1459.13 -3298.15 0 1775.85 -3309.94 0 
1798.82 -3298.15 0 1448.74 -3281.15 0 1812.86 -3290.93 0 
1831.92 -3281.14 0 1438.34 -3264.15 0 1442.85 -3271.53 0 
1849.86 -3271.93 0 1865.02 -3264.14 0 1427.94 -3247.15 0 
1886.86 -3252.92 0 1898.11 -3247.14 0 1417.54 -3230.15 0 
1923.86 -3233.91 0 1931.21 -3230.14 0 1407.14 -3213.15 0 
1960.86 -3214.91 0 1964.31 -3213.14 0 1396.75 -3196.15 0 
1405.85 -3211.03 0 1997.41 -3196.13 0 1386.35 -3179.15 0 
1997.87 -3195.9 0 2030.51 -3179.13 0 1375.95 -3162.15 0 
2034.87 -3176.89 0 2063.61 -3162.13 0 1365.55 -3145.15 0 
1368.85 -3150.54 0 2071.87 -3157.89 0 2096.7 -3145.13 0 
1355.15 -3128.15 0 2108.87 -3138.88 0 2129.8 -3128.13 0 
1344.76 -3111.15 0 2145.87 -3119.87 0 2163.92 -3111.12 0 
1334.36 -3094.15 0 2182.88 -3106.06 0 2219.88 -3101.57 0 
2256.88 -3097.09 0 2281.4 -3094.12 0 1323.96 -3077.15 0 
1331.85 -3090.05 0 2293.88 -3092.61 0 2330.88 -3087.28 0 
2336.65 -3077.12 0 1313.56 -3060.14 0 2340.42 -3060.12 0 
1303.16 -3043.14 0 2344.18 -3043.12 0 1292.77 -3026.14 0 
1294.86 -3029.56 0 2347.95 -3026.11 0 1282.37 -3009.14 0 
2351.72 -3009.11 0 1271.97 -2992.14 0 2355.49 -2992.11 0 
1261.57 -2975.14 0 2359.25 -2975.11 0 1251.17 -2958.14 0 
1257.86 -2969.07 0 2363.02 -2958.11 0 1240.78 -2941.14 0 
2366.79 -2941.11 0 1230.38 -2924.14 0 2367.89 -2936.14 0 
2370.56 -2924.11 0 1196.71 -2907.14 0 1220.86 -2919.24 0 
2374.33 -2907.11 0 1150.71 -2890.14 0 1183.86 -2902.39 0 
2378.09 -2890.11 0 1104.71 -2873.14 0 1109.86 -2875.04 0 
1146.86 -2888.72 0 2381.86 -2873.1 0 1058.7 -2856.14 0 
1072.86 -2861.37 0 2385.63 -2856.1 0 1014.05 -2839.14 0 
1035.86 -2847.7 0 2389.4 -2839.1 0 984.244 -2822.14 0 
998.86 -2832.15 0 2393.17 -2822.1 0 960.967 -2805.14 0 
961.861 -2806.81 0 2396.93 -2805.1 0 951.995 -2788.14 0 
2400.7 -2788.1 0 943.276 -2771.14 0 2404.47 -2771.1 0 
934.799 -2754.14 0 2404.9 -2769.15 0 2408.24 -2754.1 0 
926.554 -2737.14 0 2412.01 -2737.1 0 919.685 -2720.14 0 
924.864 -2733.59 0 2415.77 -2720.09 0 913.143 -2703.13 0 
2419.54 -2703.09 0 906.601 -2686.13 0 2423.31 -2686.09 0 
900.059 -2669.13 0 2427.08 -2669.09 0 893.517 -2652.13 0 
2430.84 -2652.09 0 886.975 -2635.13 0 887.869 -2637.45 0 
2434.61 -2635.09 0 880.433 -2618.13 0 2438.38 -2618.09 0 
873.891 -2601.13 0 2441.91 -2602.15 0 2442.15 -2601.09 0 
867.349 -2584.13 0 2445.92 -2584.09 0 860.807 -2567.13 0 
2449.68 -2567.08 0 854.264 -2550.13 0 2453.45 -2550.08 0 
847.722 -2533.13 0 850.874 -2541.31 0 2457.22 -2533.08 0 
841.18 -2516.13 0 2460.99 -2516.08 0 834.638 -2499.12 0 
2464.76 -2499.08 0 828.096 -2482.12 0 2468.52 -2482.08 0 
821.554 -2465.12 0 2472.29 -2465.08 0 815.012 -2448.12 0 
2476.06 -2448.08 0 808.47 -2431.12 0 813.878 -2445.18 0 
2478.92 -2435.16 0 2479.83 -2431.08 0 801.928 -2414.12 0 
2483.6 -2414.07 0 795.386 -2397.12 0 2487.36 -2397.07 0 
788.844 -2380.12 0 2491.13 -2380.07 0 782.302 -2363.12 0 
2494.9 -2363.07 0 775.759 -2346.12 0 776.883 -2349.04 0 
2498.67 -2346.07 0 769.217 -2329.12 0 2502.44 -2329.07 0 
762.675 -2312.12 0 2506.2 -2312.07 0 756.133 -2295.11 0 
2509.97 -2295.07 0 749.591 -2278.11 0 2513.74 -2278.07 0 
743.049 -2261.11 0 2515.93 -2268.16 0 2517.51 -2261.06 0 
736.507 -2244.11 0 739.888 -2252.9 0 2521.27 -2244.06 0 
729.965 -2227.11 0 2525.04 -2227.06 0 723.423 -2210.11 0 
2528.81 -2210.06 0 716.881 -2193.11 0 2539.81 -2193.06 0 
710.513 -2176.11 0 2552.23 -2176.06 0 707.438 -2159.11 0 
2552.94 -2175.09 0 2562.45 -2159.06 0 705.088 -2142.11 0 
2567.82 -2142.06 0 702.744 -2125.11 0 702.894 -2126.19 0 
2571.1 -2125.06 0 700.4 -2108.1 0 2570.49 -2108.05 0 
698.056 -2091.1 0 2569.51 -2091.05 0 695.712 -2074.1 0 
2568.53 -2074.05 0 693.368 -2057.1 0 2567.55 -2057.05 0 
691.024 -2040.1 0 2566.57 -2040.05 0 688.68 -2023.1 0 
2565.59 -2023.05 0 686.336 -2006.1 0 2564.61 -2006.05 0 
683.991 -1989.1 0 2563.63 -1989.05 0 681.647 -1972.1 0 
2562.65 -1972.05 0 679.303 -1955.1 0 2561.67 -1955.05 0 
676.959 -1938.1 0 2560.69 -1938.04 0 674.615 -1921.09 0 
2559.7 -1921.04 0 672.271 -1904.09 0 2558.72 -1904.04 0 
669.927 -1887.09 0 2557.74 -1887.04 0 667.583 -1870.09 0 
2556.76 -1870.04 0 665.272 -1853.09 0 665.909 -1857.95 0 
2555.78 -1853.04 0 663.119 -1836.09 0 2554.8 -1836.04 0 
661.08 -1819.09 0 2553.82 -1819.04 0 659.145 -1802.09 0 
2552.96 -1804.16 0 2552.84 -1802.04 0 657.308 -1785.09 0 
2551.86 -1785.04 0 655.546 -1768.09 0 2550.88 -1768.04 0 
654.491 -1751.09 0 2549.9 -1751.03 0 653.437 -1734.08 0 
2548.92 -1734.03 0 652.382 -1717.08 0 2547.94 -1717.03 0 
651.305 -1700.08 0 2546.96 -1700.03 0 649.797 -1683.08 0 
2545.98 -1683.03 0 648.273 -1666.08 0 2545 -1666.03 0 
646.748 -1649.08 0 2544.02 -1649.03 0 644.326 -1632.08 0 
2543.03 -1632.03 0 641.289 -1615.08 0 2542.05 -1615.03 0 
638.875 -1598.08 0 2541.07 -1598.03 0 636.91 -1581.08 0 
2540.09 -1581.02 0 -481.106 -1580.43 0 -514.467 -1564.11 0 
-444.105 -1578.73 0 -407.103 -1567.08 0 -397.644 -1564.1 0 
635.281 -1564.07 0 1318.18 -1564.06 0 1331.94 -1567.22 0 
1368.94 -1568.18 0 1405.95 -1569.13 0 1442.95 -1570.09 0 
1479.95 -1571.05 0 1516.95 -1572.01 0 1553.95 -1572.97 0 
1590.95 -1573.92 0 1616.27 -1564.05 0 2539.62 -1564.02 0 
-518.106 -1562.32 0 -549.2 -1547.11 0 -370.102 -1555.43 0 
-343.635 -1547.1 0 633.907 -1547.07 0 1273.7 -1547.06 0 
1294.94 -1557.84 0 1627.95 -1557.24 0 1638.54 -1547.05 0 
2540.5 -1547.02 0 -555.106 -1544.22 0 -583.933 -1530.11 0 
-333.1 -1543.78 0 -296.098 -1532.14 0 -289.626 -1530.1 0 
630.451 -1530.07 0 1249.23 -1530.06 0 1257.94 -1539.6 0 
1656.19 -1530.05 0 2541.54 -1530.02 0 -592.106 -1526.11 0 
-618.666 -1513.11 0 -259.096 -1520.49 0 -235.617 -1513.1 0 
625.824 -1513.07 0 628.927 -1523.16 0 1232.89 -1513.06 0 
1664.96 -1521.6 0 1674.88 -1513.04 0 2542.58 -1513.02 0 
-629.106 -1508 0 -653.4 -1496.11 0 -222.095 -1508.84 0 
-185.093 -1497.19 0 -181.608 -1496.09 0 621.408 -1496.07 0 
1215.04 -1496.06 0 1220.94 -1502.15 0 1694.17 -1496.04 0 
2543.62 -1496.02 0 -666.106 -1489.89 0 -688.133 -1479.11 0 
-148.091 -1485.54 0 -127.599 -1479.09 0 617.781 -1479.07 0 
1198.57 -1479.05 0 1701.96 -1489.04 0 1713.95 -1479.04 0 
2544.66 -1479.02 0 -703.106 -1471.78 0 -718.51 -1462.11 0 
-111.09 -1473.89 0 -74.0884 -1468.33 0 -65.6135 -1462.09 0 
614.748 -1462.07 0 1182.11 -1462.05 0 1183.95 -1463.95 0 
1734.34 -1462.04 0 2545.71 -1462.02 0 -736.202 -1445.1 0 
-40.9017 -1445.09 0 611.73 -1445.07 0 1165.64 -1445.05 0 
1738.96 -1458.18 0 1754.73 -1445.04 0 2546.75 -1445.02 0 
-740.105 -1439.97 0 -748.475 -1428.1 0 -37.0858 -1441.92 0 
-27.2781 -1428.08 0 607.985 -1428.07 0 1149.17 -1428.05 0 
1775.11 -1428.04 0 2547.79 -1428.02 0 -760.468 -1411.1 0 
-15.2225 -1411.08 0 604.241 -1411.07 0 1132.7 -1411.05 0 
1146.95 -1425.76 0 1775.96 -1427.33 0 1789.48 -1411.03 0 
2548.83 -1411.01 0 -772.461 -1394.1 0 -3.29664 -1394.08 0 
600.497 -1394.07 0 1116.23 -1394.05 0 1800.03 -1394.03 0 
2549.87 -1394.01 0 -777.103 -1387.52 0 -784.454 -1377.1 0 
-0.0817441 -1389.73 0 8.88866 -1377.08 0 596.753 -1377.06 0 
1097.91 -1377.05 0 1109.95 -1387.56 0 1808.17 -1377.03 0 
2550.91 -1377.01 0 -796.447 -1360.1 0 20.9443 -1360.08 0 
593.008 -1360.06 0 1075.15 -1360.05 0 1812.97 -1364.78 0 
1814.78 -1360.03 0 2547.33 -1360.01 0 -808.44 -1343.1 0 
32.9999 -1343.08 0 589.264 -1343.06 0 591.936 -1355.2 0 
1051.15 -1343.05 0 1072.95 -1358.49 0 1821.25 -1343.03 0 
2544.34 -1343.01 0 -814.101 -1335.08 0 -820.433 -1326.1 0 
36.9223 -1337.55 0 45.0555 -1326.08 0 585.52 -1326.06 0 
1027.15 -1326.05 0 1035.95 -1332.28 0 1827.73 -1326.03 0 
2541.68 -1326.01 0 -832.426 -1309.1 0 57.1111 -1309.08 0 
580.18 -1309.06 0 1003.15 -1309.05 0 1834.2 -1309.03 0 
2538.3 -1309.01 0 -844.419 -1292.1 0 69.1667 -1292.07 0 
570.841 -1292.06 0 987.301 -1292.05 0 998.95 -1306.08 0 
1840.68 -1292.03 0 2534.93 -1292.01 0 -851.098 -1282.63 0 
-856.412 -1275.1 0 73.9264 -1285.36 0 81.2223 -1275.07 0 
564.43 -1275.06 0 973.119 -1275.05 0 1847.15 -1275.03 0 
2531.56 -1275.01 0 -868.405 -1258.1 0 93.2779 -1258.07 0 
559.362 -1258.06 0 959.481 -1258.05 0 961.952 -1261.72 0 
1849.98 -1267.61 0 1853.63 -1258.02 0 2528.19 -1258.01 0 
-880.398 -1241.1 0 105.334 -1241.07 0 555.166 -1241.06 0 
948.043 -1241.05 0 1864.01 -1241.02 0 2524.81 -1241 0 
-888.096 -1230.18 0 -892.391 -1224.1 0 110.93 -1233.18 0 
117.389 -1224.07 0 551.241 -1224.06 0 554.942 -1240.07 0 
936.605 -1224.05 0 1874.58 -1224.02 0 2521.44 -1224 0 
-904.384 -1207.1 0 127.193 -1207.07 0 547.32 -1207.06 0 
925.167 -1207.05 0 1885.15 -1207.02 0 2518.07 -1207 0 
-916.376 -1190.09 0 133.071 -1190.07 0 543.406 -1190.06 0 
914.112 -1190.05 0 924.954 -1206.73 0 1886.98 -1204.08 0 
1895.72 -1190.02 0 2516 -1196.55 0 2514.7 -1190 0 
-925.094 -1177.74 0 -928.369 -1173.09 0 137.195 -1173.07 0 
539.5 -1173.05 0 903.943 -1173.04 0 1906.29 -1173.02 0 
2511.35 -1173 0 -940.362 -1156.09 0 139.74 -1156.06 0 
535.602 -1156.05 0 894.571 -1156.04 0 1916.18 -1156.02 0 
2508.56 -1156 0 -952.706 -1139.09 0 141.508 -1139.06 0 
531.712 -1139.05 0 885.787 -1139.04 0 887.957 -1143.24 0 
1923.67 -1139.02 0 2507.31 -1139 0 -962.092 -1129.89 0 
-969.19 -1122.09 0 143.276 -1122.06 0 527.829 -1122.05 0 
877.004 -1122.04 0 1923.98 -1138.24 0 1929.62 -1122.01 0 
2506.82 -1122 0 -988.593 -1105.09 0 145.043 -1105.06 0 
523.955 -1105.05 0 868.22 -1105.04 0 1935.52 -1105.01 0 
2506.33 -1105 0 -999.091 -1095.88 0 -1005.95 -1088.09 0 
146.811 -1088.06 0 520.088 -1088.05 0 859.436 -1088.04 0 
1941.43 -1088.01 0 2505.84 -1088 0 -1015.67 -1071.09 0 
147.941 -1077.2 0 148.582 -1071.06 0 516.164 -1071.05 0 
517.951 -1078.64 0 850.653 -1071.04 0 850.96 -1071.64 0 
[...]
POINT_DATA 7031
SCALARS Pressure double
LOOKUP_TABLE default
3.0932710339 3.0932710339 3.0932710339 3.0932710339 3.0932710339 3.0932710339 3.0932710339 3.0932710339 3.0932710339 
3.0932710339 3.0932710339 3.0932710339 3.0932710339 3.0932710339 3.0932710339 3.0932710339 3.0932710339 3.0932710339 
3.0932710339 3.0932710339 3.0932710339 3.0932710339 3.0932710339 3.0932710339 3.0932710339 3.0932710339 3.0932710339 
3.0932710339 3.0932710339 3.0932710339 3.0932710339 3.0932710339 3.0932710339 3.0932710339 3.0932710339 3.0932710339 
3.0932710339 3.0932710339 3.0932710339 3.0932710339 3.0932710339 3.0932710339 3.0932710339 3.0932710339 3.0932710339 
3.0932710339 3.0932710339 3.0932710339 3.0932710339 3.0932710339 3.0932710339 3.0932710339 3.0932710339 3.0932710339 
3.0932710339 3.0932710339 3.0932710339 3.0932710339 3.0932710339 3.0932710339 3.0932710339 3.0932710339 3.0932710339 
3.0932710339 3.0932710339 3.0932710339 3.0932710339 3.0932710339 3.0932710339 3.0932710339 3.0932710339 3.0932710339 
3.0932710339 3.0932710339 3.0932710339 3.0932710339 3.0932710339 3.0932710339 3.0932710339 3.0932710339 3.0932710339 
3.0932710339 3.0932710339 3.0932710339 3.0932710339 3.0932710339 3.0932710339 3.0932710339 3.0932710339 3.0932710339 
3.0932710339 3.0932710339 3.0932710339 3.0932710339 3.0932710339 3.0932710339 3.0932710339 3.0932710339 3.0932710339 
3.0932710339 3.0932710339 3.0932710339 3.0932710339 3.0932710339 3.0932710339 3.0932710339 3.0932710339 3.0932710339 
3.0932710339 3.0932710339 3.0932710339 3.0932710339 3.0932710339 3.0932710339 3.0932710339 3.0932710339 3.0932710339 
3.0932710339 3.0932710339 3.0932710339 3.0932710339 3.0932710339 3.0932710339 3.0932710339 3.0932710339 3.0932710339 
3.0932710339 3.0932710339 3.0932710339 3.0932710339 3.0932710339 3.0932710339 3.0932710339 3.0932710339 3.0932710339 
3.0932710339 3.0932710339 3.0932710339 3.0932710339 3.0932710339 3.0932710339 3.0932710339 3.0932710339 3.0932710339 
3.0932710339 3.0932710339 3.0932710339 3.0932710339 3.0932710339 3.0932710339 3.0932710339 3.0932710339 3.0932710339 
3.0932710339 3.0932710339 3.0932710339 3.0932710339 3.0932710339 3.0932710339 3.0932710339 3.0932710339 3.0932710339 
3.0932710339 3.0932710339 3.0932710339 3.0932710339 3.0932710339 3.0932710339 3.0932710339 3.0932710339 3.0932710339 
3.0932710339 3.0932710339 3.0932710339 3.0932710339 3.0932710339 3.0932710339 3.0932710339 3.0932710339 3.0932710339 
3.0932710339 3.0932710339 3.0932710339 3.0932710339 3.0932710339 3.0932710339 3.0932710339 3.0932710339 3.0932710339 
3.0932710339 3.0932710339 3.0932710339 3.0932710339 3.0932710339 3.0932710339 3.0932710339 3.0932710339 3.0932710339 
3.0932710339 3.0932710339 3.0932710339 3.0932710339 3.0932710339 3.0932710339 3.0932710339 3.0932710339 3.0932710339 
3.0932710339 3.0932710339 3.0932710339 3.0932710339 3.0932710339 3.0932710339 3.0932710339 3.0932710339 3.0932710339 
3.0932710339 3.0932710339 3.0932710339 3.0932710339 3.0932710339 3.0932710339 3.0932710339 3.0932710339 3.0932710339 
3.0932710339 3.0932710339 3.0932710339 3.0932710339 3.0932710339 3.0932710339 3.0932710339 3.0932710339 3.0932710339 
3.0932710339 3.0932710339 3.0932710339 3.0932710339 3.0932710339 3.0932710339 3.0932710339 3.0932710339 3.0932710339 
3.0932710339 3.0932710339 3.0932710339 3.0932710339 3.0932710339 3.0932710339 3.0932710339 3.0932710339 3.0932710339 
3.0932710339 3.0932710339 3.0932710339 3.0932710339 3.0932710339 3.0932710339 3.0932710339 3.0932710339 3.0932710339 
3.0932710339 3.0932710339 3.0932710339 3.0932710339 3.0932710339 3.0932710339 3.0932710339 3.0932710339 3.0932710339 
3.0932710339 3.0786768432 3.0786768432 3.0786768432 3.0786768432 3.0786768432 3.0932710339 3.1078652246 3.1078652246 
3.1078652246 3.1078652246 3.1078652246 3.1078652246 3.1078652246 3.1078652246 3.1078652246 3.1078652246 3.0932710339 
3.0786768432 3.0786768432 3.0786768432 3.0786768432 3.0932710339 3.1078652246 3.1078652246 3.1078652246 3.1078652246 
3.0932710339 3.0786768432 3.0786768432 3.0786768432 3.0786768432 3.0786768432 3.0932710339 3.1078652246 3.1078652246 
3.1078652246 3.0932710339 3.0786768432 3.0786768432 3.0786768432 3.0786768432 3.0932710339 3.0932710339 3.1078652246 
3.1078652246 3.1078652246 3.0932710339 3.0786768432 3.0786768432 3.0786768432 3.0786768432 3.0786768432 3.0932710339 
3.1078652246 3.1078652246 3.1078652246 3.0932710339 3.0786768432 3.0786768432 3.0786768432 3.0786768432 3.0932710339 
3.1078652246 3.1078652246 3.1078652246 3.0932710339 3.0786768432 3.0786768432 3.0786768432 3.0786768432 3.0786768432 
3.0932710339 3.1078652246 3.1078652246 3.1078652246 3.0932710339 3.0786768432 3.0786768432 3.0932710339 3.1078652246 
3.1078652246 3.1078652246 3.0932710339 3.0786768432 3.0786768432 3.0786768432 3.0786768432 3.0932710339 3.1078652246 
3.1078652246 3.0932710339 3.0786768432 3.0786768432 3.0932710339 3.1078652246 3.1078652246 3.1078652246 3.1078652246 
3.0932710339 3.0786768432 3.0786768432 3.0932710339 3.1078652246 3.1078652246 3.0932710339 3.0786768432 3.0786768432 
3.0786768432 3.0786768432 3.0932710339 3.1078652246 3.1078652246 3.1078652246 3.0932710339 3.0786768432 3.0786768432 
3.0932710339 3.1078652246 3.1078652246 3.1078652246 3.0932710339 3.0786768432 3.0786768432 3.0932710339 3.0932710339 
3.1078652246 3.1078652246 3.1078652246 3.0932710339 3.0786768432 3.0786768432 3.0786768432 3.0786768432 3.0932710339 
3.1078652246 3.1078652246 3.1078652246 3.0932710339 3.0786768432 3.0786768432 3.0932710339 3.1078652246 3.1078652246 
3.0932710339 3.0786768432 3.0786768432 3.0932710339 3.1078652246 3.1078652246 3.1078652246 3.0932710339 3.0786768432 
3.0786768432 3.0786768432 3.0786768432 3.0932710339 3.1078652246 3.1078652246 3.0932710339 3.0786768432 3.0786768432 
3.0932710339 3.1078652246 3.1078652246 3.1078652246 3.1078652246 3.0932710339 3.0786768432 3.0786768432 3.0932710339 
3.1078652246 3.1078652246 3.0932710339 3.0786768432 3.0786768432 3.0786768432 3.0786768432 3.0932710339 3.0932710339 
3.1078652246 3.1078652246 3.0932710339 3.0786768432 3.0786768432 3.0932710339 3.1078652246 3.1078652246 3.0932710339 
3.0786768432 3.0786768432 3.0932710339 3.1078652246 3.1078652246 3.1078652246 3.1078652246 3.0932710339 3.0932710339 
3.0786768432 3.0786768432 3.0786768432 3.0932710339 3.1078652246 3.1078652246 3.0932710339 3.0786768432 3.0786768432 
3.0932710339 3.1078652246 3.1078652246 3.0932710339 3.0786768432 3.0786768432 3.0932710339 3.1078652246 3.1078652246 
3.1078652246 3.0932710339 3.0786768432 3.0786768432 3.0786768432 3.0932710339 3.1078652246 3.1078652246 3.1078652246 
3.0932710339 3.0786768432 3.0786768432 3.0932710339 3.1078652246 3.1078652246 3.0932710339 3.0786768432 3.0786768432 
3.0786768432 3.0932710339 3.1078652246 3.1078652246 3.0932710339 3.0786768432 3.0786768432 3.0786768432 3.0932710339 
3.0932710339 3.1078652246 3.1078652246 3.1078652246 3.0932710339 3.0786768432 3.0786768432 3.0932710339 3.1078652246 
3.1078652246 3.0932710339 3.0786768432 3.0786768432 3.0932710339 3.1078652246 3.1078652246 3.0932710339 3.0786768432 
3.0786768432 3.0932710339 3.1078652246 3.1078652246 3.1078652246 3.0932710339 3.0786768432 3.0786768432 3.0932710339 
3.1078652246 3.1078652246 3.1078652246 3.0932710339 3.0786768432 3.0786768432 3.0932710339 3.1078652246 3.1078652246 
3.0932710339 3.0786768432 3.0786768432 3.0786768432 3.0932710339 3.1078652246 3.1078652246 3.1078652246 3.0932710339 
3.0786768432 3.0786768432 3.0932710339 3.1078652246 3.1078652246 3.0932710339 3.0786768432 3.0786768432 3.0932710339 
3.1078652246 3.1078652246 3.0932710339 3.0786768432 3.0786768432 3.0786768432 3.0932710339 3.1078652246 3.1224594153 
3.1224594153 3.1224594153 3.1078652246 3.1078652246 3.0932710339 3.0786768432 3.0786768432 3.0932710339 3.0932710339 
3.1078652246 3.1078652246 3.1224594153 3.1224594153 3.1224594153 3.1224594153 3.1224594153 3.1224594153 3.1078652246 
3.0932710339 3.0786768432 3.0786768432 3.0932710339 3.1078652246 3.1224594153 3.1224594153 3.1224594153 3.1224594153 
3.1224594153 3.1078652246 3.0932710339 3.0786768432 3.0786768432 3.0932710339 3.1078652246 3.1224594153 3.1224594153 
3.1224594153 3.1224594153 3.1224594153 3.1078652246 3.0932710339 3.0786768432 3.0786768432 3.0932710339 3.1078652246 
3.1224594153 3.1224594153 3.1224594153 3.1078652246 3.0932710339 3.0786768432 3.0786768432 3.0932710339 3.1078652246 
3.1078652246 3.1224594153 3.1224594153 3.1224594153 3.1078652246 3.0932710339 3.0786768432 3.0786768432 3.0932710339 
3.1078652246 3.1224594153 3.1224594153 3.1224594153 3.1224594153 3.1078652246 3.0932710339 3.0932710339 3.0786768432 
3.0786768432 3.0932710339 3.1078652246 3.1224594153 3.1224594153 3.1078652246 3.1078652246 3.0932710339 3.0786768432 
3.0786768432 3.0932710339 3.0932710339 3.1078652246 3.1078652246 3.1224594153 3.1224594153 3.1224594153 3.1078652246 
3.0932710339 3.0786768432 3.0786768432 3.0786768432 3.0932710339 3.1078652246 3.1224594153 3.1224594153 3.1224594153 
3.1078652246 3.0932710339 3.0786768432 3.0786768432 3.0786768432 3.0786768432 3.0786768432 3.0786768432 3.0640826525 
3.0640826525 3.0640826525 3.0786768432 3.0932710339 3.1078652246 3.1224594153 3.1224594153 3.1078652246 3.0932710339 
3.0786768432 3.0786768432 3.0786768432 3.0786768432 3.0786768432 3.0640826525 3.0640826525 3.0640826525 3.0640826525 
3.0640826525 3.0640826525 3.0640826525 3.0786768432 3.0932710339 3.1078652246 3.1224594153 3.1224594153 3.1224594153 
3.1224594153 3.1078652246 3.0932710339 3.0932710339 3.0786768432 3.0786768432 3.0786768432 3.0786768432 3.0786768432 
3.0640826525 3.0640826525 3.0640826525 3.0640826525 3.0786768432 3.0932710339 3.1078652246 3.1224594153 3.1224594153 
3.1078652246 3.0932710339 3.0786768432 3.0786768432 3.0786768432 3.0786768432 3.0786768432 3.0640826525 3.0640826525 
3.0640826525 3.0786768432 3.0932710339 3.1078652246 3.1078652246 3.1224594153 3.1224594153 3.1224594153 3.1078652246 
3.0932710339 3.0786768432 3.0786768432 3.0786768432 3.0786768432 3.0786768432 3.0640826525 3.0640826525 3.0640826525 
3.0786768432 3.0932710339 3.1078652246 3.1224594153 3.1224594153 3.1224594153 3.1224594153 3.1078652246 3.0932710339 
3.0932710339 3.0786768432 3.0786768432 3.0786768432 3.0786768432 3.0786768432 3.0640826525 3.0640826525 3.0640826525 
3.0786768432 3.0932710339 3.1078652246 3.1224594153 3.1224594153 3.1078652246 3.1078652246 3.0932710339 3.0786768432 
3.0786768432 3.0786768432 3.0786768432 3.0786768432 3.0640826525 3.0640826525 3.0640826525 3.0786768432 3.0932710339 
3.1078652246 3.1224594153 3.1224594153 3.1078652246 3.0932710339 3.0786768432 3.0786768432 3.0786768432 3.0786768432 
3.0640826525 3.0640826525 3.0786768432 3.0932710339 3.1078652246 3.1224594153 3.1224594153 3.1224594153 3.1078652246 
3.0932710339 3.0786768432 3.0786768432 3.0786768432 3.0786768432 3.0786768432 3.0640826525 3.0640826525 3.0640826525 
3.0640826525 3.0786768432 3.0932710339 3.1078652246 3.1078652246 3.1224594153 3.1224594153 3.1224594153 3.1078652246 
3.0932710339 3.0786768432 3.0786768432 3.0786768432 3.0786768432 3.0640826525 3.0640826525 3.0786768432 3.0932710339 
3.0932710339 3.1078652246 3.1224594153 3.1224594153 3.1078652246 3.0932710339 3.0786768432 3.0786768432 3.0786768432 
3.0640826525 3.0640826525 3.0640826525 3.0640826525 3.0786768432 3.0932710339 3.1078652246 3.1224594153 3.1224594153 
3.1224594153 3.1078652246 3.0932710339 3.0786768432 3.0786768432 3.0786768432 3.0640826525 3.0640826525 3.0786768432 
3.0932710339 3.1078652246 3.1224594153 3.137053606 3.137053606 3.137053606 3.1224594153 3.1078652246 3.0932710339 
3.0786768432 3.0786768432 3.0786768432 3.0786768432 3.0640826525 3.0640826525 3.0786768432 3.0932710339 3.1078652246 
3.1078652246 3.1224594153 3.1224594153 3.137053606 3.137053606 3.137053606 3.137053606 3.1224594153 3.1224594153 
3.1078652246 3.0932710339 3.0786768432 3.0786768432 3.0786768432 3.0640826525 3.0640826525 3.0786768432 3.0932710339 
3.1078652246 3.1224594153 3.137053606 3.137053606 3.137053606 3.137053606 3.1224594153 3.1078652246 3.0932710339 
3.0786768432 3.0786768432 3.0786768432 3.0640826525 3.0640826525 3.0786768432 3.0932710339 3.1078652246 3.1224594153 
3.1224594153 3.137053606 3.137053606 3.137053606 3.137053606 3.1224594153 3.1078652246 3.0932710339 3.0786768432 
3.0786768432 3.0786768432 3.0786768432 3.0786768432 3.0640826525 3.0640826525 3.0786768432 3.0932710339 3.1078652246 
3.1078652246 3.1224594153 3.137053606 3.137053606 3.137053606 3.1224594153 3.1078652246 3.1078652246 3.0932710339 
3.0786768432 3.0786768432 3.0786768432 3.0640826525 3.0640826525 3.0640826525 3.0640826525 3.0786768432 3.0932710339 
3.1078652246 3.1224594153 3.137053606 3.137053606 3.137053606 3.1224594153 3.1078652246 3.0932710339 3.0786768432 
3.0786768432 3.0786768432 3.0640826525 3.0640826525 3.0786768432 3.0932710339 3.0932710339 3.1078652246 3.1224594153 
3.1224594153 3.137053606 3.137053606 3.137053606 3.1224594153 3.1078652246 3.0932710339 3.0786768432 3.0786768432 
3.0786768432 3.0786768432 3.0640826525 3.0640826525 3.0786768432 3.0932710339 3.1078652246 3.1224594153 3.137053606 
3.137053606 3.137053606 3.1224594153 3.1224594153 3.1078652246 3.0932710339 3.0786768432 3.0786768432 3.0786768432 
3.0640826525 3.0494884618 3.0494884618 3.0494884618 3.0494884618 3.0494884618 3.0640826525 3.0786768432 3.0932710339 
3.1078652246 3.1224594153 3.137053606 3.137053606 3.137053606 3.1224594153 3.1078652246 3.0932710339 3.0786768432 
3.0786768432 3.0786768432 3.0640826525 3.0494884618 3.0494884618 3.0494884618 3.0494884618 3.0640826525 3.0786768432 
3.0932710339 3.1078652246 3.1078652246 3.1224594153 3.1224594153 3.137053606 3.137053606 3.137053606 3.1224594153 
3.1078652246 3.0932710339 3.0786768432 3.0786768432 3.0786768432 3.0786768432 3.0786768432 3.0640826525 3.0640826525 
3.0494884618 3.0494884618 3.0494884618 3.0640826525 3.0786768432 3.0932710339 3.1078652246 3.1224594153 3.137053606 
3.137053606 3.137053606 3.1224594153 3.1078652246 3.0932710339 3.0932710339 3.0786768432 3.0786768432 3.0786768432 
3.0640826525 3.0494884618 3.0494884618 3.0494884618 3.0640826525 3.0786768432 3.0932710339 3.0932710339 3.1078652246 
3.1224594153 3.137053606 3.137053606 3.137053606 3.1224594153 3.1078652246 3.0932710339 3.0786768432 3.0786768432 
3.0786768432 3.0786768432 3.0640826525 3.0494884618 3.0494884618 3.0494884618 3.0640826525 3.0786768432 3.0932710339 
3.1078652246 3.1078652246 3.1224594153 3.1224594153 3.137053606 3.137053606 3.137053606 3.1224594153 3.1078652246 
3.0932710339 3.0786768432 3.0786768432 3.0786768432 3.0786768432 3.0640826525 3.0494884618 3.0494884618 3.0494884618 
3.0640826525 3.0786768432 3.0932710339 3.1078652246 3.1224594153 3.137053606 3.137053606 3.1224594153 3.1078652246 
3.0932710339 3.0786768432 3.0786768432 3.0786768432 3.0640826525 3.0494884618 3.0494884618 3.0494884618 3.0640826525 
3.0786768432 3.0932710339 3.1078652246 3.1224594153 3.137053606 3.137053606 3.1224594153 3.1078652246 3.0932710339 
3.0786768432 3.0786768432 3.0786768432 3.0786768432 3.0640826525 3.0494884618 3.0494884618 3.0640826525 3.0786768432 
3.0786768432 3.0932710339 3.1078652246 3.1078652246 3.1224594153 3.137053606 3.137053606 3.137053606 3.1224594153 
3.1078652246 3.0932710339 3.0786768432 3.0786768432 3.0786768432 3.0640826525 3.0494884618 3.0494884618 3.0640826525 
3.0786768432 3.0932710339 3.1078652246 3.1224594153 3.1224594153 3.137053606 3.137053606 3.137053606 3.1224594153 
3.1078652246 3.0932710339 3.0786768432 3.0786768432 3.0786768432 3.0786768432 3.0786768432 3.0640826525 3.0494884618 
3.0494884618 3.0494884618 3.0640826525 3.0786768432 3.0932710339 3.0932710339 3.1078652246 3.1224594153 3.137053606 
3.137053606 3.1224594153 3.1078652246 3.0932710339 3.0786768432 3.0786768432 3.0786768432 3.0786768432 3.0640826525 
3.0640826525 3.0494884618 3.0348942711 3.0348942711 3.0348942711 3.0348942711 3.0494884618 3.0640826525 3.0786768432 
3.0932710339 3.1078652246 3.1224594153 3.137053606 3.137053606 3.1224594153 3.1078652246 3.1078652246 3.0932710339 
3.0786768432 3.0786768432 3.0786768432 3.0786768432 3.0640826525 3.0494884618 3.0348942711 3.0348942711 3.0348942711 
3.0348942711 3.0494884618 3.0494884618 3.0640826525 3.0786768432 3.0932710339 3.1078652246 3.1224594153 3.137053606 
3.137053606 3.137053606 3.1224594153 3.1078652246 3.0932710339 3.0786768432 3.0640826525 3.0640826525 3.0640826525 
3.0640826525 3.0640826525 3.0640826525 3.0786768432 3.0786768432 3.0640826525 3.0494884618 3.0348942711 3.0348942711 
3.0348942711 3.0348942711 3.0494884618 3.0640826525 3.0786768432 3.0932710339 3.1078652246 3.1078652246 3.1224594153 
3.1224594153 3.137053606 3.137053606 3.137053606 3.1224594153 3.1078652246 3.0932710339 3.0786768432 3.0640826525 
3.0640826525 3.0640826525 3.0786768432 3.0786768432 3.0786768432 3.0640826525 3.0494884618 3.0348942711 3.0348942711 
3.0494884618 3.0640826525 3.0786768432 3.0932710339 3.1078652246 3.1224594153 3.1224594153 3.137053606 3.137053606 
3.1224594153 3.1078652246 3.0932710339 3.0786768432 3.0786768432 3.0640826525 3.0640826525 3.0640826525 3.0786768432 
3.0786768432 3.0786768432 3.0786768432 3.0786768432 3.0786768432 3.0640826525 3.0494884618 3.0348942711 3.0348942711 
3.0494884618 3.0640826525 3.0786768432 3.0932710339 3.1078652246 3.1224594153 3.137053606 3.137053606 3.1224594153 
3.1078652246 3.0932710339 3.0932710339 3.0786768432 3.0640826525 3.0640826525 3.0640826525 3.0640826525 3.0786768432 
3.0786768432 3.0786768432 3.0786768432 3.0640826525 3.0494884618 3.0494884618 3.0348942711 3.0348942711 3.0203000804 
3.0203000804 3.0203000804 3.0203000804 3.0348942711 3.0348942711 3.0494884618 3.0640826525 3.0786768432 3.0786768432 
3.0932710339 3.1078652246 3.1224594153 3.137053606 3.137053606 2.9619233175 2.9619233175 2.9765175082 2.9765175082 
2.991111699 2.991111699 3.0057058897 3.0057058897 3.0203000804 3.0203000804 3.0348942711 3.0348942711 3.0494884618 
3.0494884618 3.0640826525 3.0640826525 3.0786768432 3.0786768432 3.0932710339 3.0932710339 3.1078652246 3.1078652246 
3.1224594153 3.1224594153 3.137053606 3.137053606 2.9619233175 2.9765175082 2.991111699 3.0057058897 3.0203000804 
3.0348942711 3.0494884618 3.0640826525 3.0786768432 3.0932710339 3.1078652246 3.1224594153 3.137053606 2.9619233175 
2.9765175082 2.991111699 3.0057058897 3.0203000804 3.0348942711 3.0494884618 3.0640826525 3.0786768432 3.0932710339 
3.1078652246 3.1224594153 3.137053606 2.9619233175 2.9765175082 2.991111699 3.0057058897 3.0203000804 3.0348942711 
3.0494884618 3.0640826525 3.0786768432 3.0932710339 3.1078652246 3.1224594153 3.137053606 2.9619233175 2.9765175082 
2.991111699 3.0057058897 3.0203000804 3.0348942711 3.0494884618 3.0640826525 3.0786768432 3.0932710339 3.1078652246 
3.1224594153 3.137053606 2.9619233175 2.9765175082 2.991111699 3.0057058897 3.0203000804 3.0348942711 3.0494884618 
3.0640826525 3.0786768432 3.0932710339 3.1078652246 3.1224594153 3.137053606 2.9619233175 2.9765175082 2.991111699 
3.0057058897 3.0203000804 3.0348942711 3.0494884618 3.0640826525 3.0786768432 3.0932710339 3.1078652246 3.1224594153 
3.137053606 2.9619233175 2.9765175082 2.991111699 3.0057058897 3.0203000804 3.0348942711 3.0494884618 3.0640826525 
3.0786768432 3.0932710339 3.1078652246 3.1224594153 3.137053606 2.9619233175 2.9765175082 2.991111699 3.0057058897 
3.0203000804 3.0348942711 3.0494884618 3.0640826525 3.0786768432 3.0932710339 3.1078652246 3.1224594153 3.137053606 
2.9619233175 2.9765175082 2.991111699 3.0057058897 3.0203000804 3.0348942711 3.0494884618 3.0640826525 3.0786768432 
3.0932710339 3.1078652246 3.1224594153 3.137053606 3.137053606 3.1224594153 3.1224594153 3.1078652246 3.0932710339 
3.0786768432 3.0640826525 3.0640826525 3.0786768432 3.0786768432 3.0786768432 3.0640826525 3.0494884618 3.0348942711 
3.0203000804 3.0203000804 3.0203000804 3.0348942711 3.0494884618 3.0640826525 3.0786768432 3.0932710339 3.1078652246 
2.9619233175 2.9619233175 2.9765175082 2.9765175082 2.991111699 2.991111699 3.0057058897 3.0057058897 3.0203000804 