# vtk DataFile Version 4.2
vtk output
ASCII
DATASET UNSTRUCTURED_GRID
POINTS 1740 double
2144.07 -94.44003 0 2911 0 0 16.54298 -37.82236 0 
5.09149 -21.30132 0 1.27433 -10.75385 0 0 0 0 
2.54575 15.14293 0 6.36291 23.76126 0 14.00014 34.89063 0 
30.50239 50.70793 0 33.39435 -52.93479 0 2050.91 -103.7862 0 
60.1465 -69.72165 0 88.83633 -83.2817 0 118.7656 -94.71113 0 
153.4168 -105.7022 0 199.5806 -117.771 0 261.4466 -130.7139 0 
345.846 -144.1892 0 460.3522 -157.0592 0 608.4185 -167.1903 0 
783.2313 -172.4016 0 941.0559 -172.4533 0 1063.409 -170.1096 0 
1164.153 -166.8746 0 1263.449 -162.682 0 1375.468 -156.8941 0 
1513.293 -148.414 0 1665.281 -137.5317 0 1791.864 -127.3721 0 
2195.451 -89.09491 0 2273.924 -80.67077 0 2383.731 -68.3513 0 
2517.64 -52.47337 0 2649.227 -35.9232 0 2740.773 -23.82991 0 
2804.387 -15.13419 0 2848.802 -8.916218 0 2881.944 -4.196067 0 
56.61447 67.79801 0 84.09687 81.25172 0 112.4783 92.48395 0 
142.1748 102.3504 0 174.8563 111.6168 0 213.124 120.8806 0 
260.3759 130.5151 0 324.6539 141.1779 0 418.1422 152.9178 0 
535.6656 162.9871 0 690.9154 170.4255 0 902.6513 172.7852 0 
1100.32 169.0517 0 1270.99 162.3262 0 1462.794 151.6837 0 
1631.287 140.0952 0 1747.993 131 0 1922.788 115.9027 0 
2069.56 101.951 0 2128.804 96.0021 0 2297.147 78.11721 0 
2414.379 64.80104 0 2554.023 47.99319 0 2673.693 32.73885 0 
2757.97 21.50315 0 2814.297 13.7575 0 2852.02 8.460961 0 
2882.272 4.148909 0 1791.052 127.4402 0 1366.894 157.3738 0 
1444.38 -152.8302 0 1547.039 146.1296 0 1589.287 -143.1614 0 
1878.731 119.8675 0 1997.072 108.9828 0 1185.654 166.0472 0 
1882.536 -119.5292 0 1971.323 -111.4145 0 1684.777 136.0292 0 
2099.317 -98.9855 0 2234.809 84.9091 0 2181.695 90.53914 0 
1728.573 -132.5703 0 1718.815 133.3509 0 1834.825 123.7132 0 
1960.305 112.4444 0 2033.69 105.4648 0 2099.184 98.99892 0 
2214.291 -75.167171485 396.8421 2955.512 15.442790553 396.8421 158.0786 -30.033073401 396.8421 
147.0109 -14.202846642 396.8421 143.3217 -4.0766120281 396.8421 142.09 6.2624953808 396.8421 
144.5505 20.84573927 396.8421 148.2398 29.158743357 396.8421 155.621 39.908938393 396.8421 
171.5701 55.218717708 396.8421 174.3652 -44.477157815 396.8421 2124.254 -84.314384962 396.8421 
200.2206 -60.475370541 396.8421 227.9488 -73.357284757 396.8421 256.8748 -84.18171681 396.8421 
290.3647 -94.556849741 396.8421 334.981 -105.90212361 396.8421 394.7733 -117.99779492 396.8421 
476.3434 -130.47695039 396.8421 587.0114 -142.20612208 396.8421 730.1145 -151.12426497 396.8421 
899.0676 -155.19124638 396.8421 1051.602 -154.42479538 396.8421 1169.853 -151.56767377 396.8421 
1267.221 -147.9820822 396.8421 1363.188 -143.50415784 396.8421 1471.452 -137.46297524 396.8421 
1604.657 -128.76843963 396.8421 1751.55 -117.77154137 396.8421 1873.891 -107.6139523 396.8421 
2263.949 -69.954335977 396.8421 2339.792 -61.763905196 396.8421 2445.918 -49.837644098 396.8421 
2575.338 -34.547995584 396.8421 2702.515 -18.698321131 396.8421 2790.992 -7.1675622198 396.8421 
2852.473 1.0994266379 396.8421 2895.4 6.9991067435 396.8421 2927.431 11.471412523 396.8421 
196.807 71.806667158 396.8421 223.3682 84.903855162 396.8421 250.7983 95.869120594 396.8421 
279.4994 105.52803319 396.8421 311.0855 114.62688613 396.8421 348.0705 123.75517867 396.8421 
393.7383 133.29166616 396.8421 455.8617 143.91493182 396.8421 546.2162 155.74166841 396.8421 
659.8003 166.097996 396.8421 809.846 174.1319201 396.8421 1014.485 177.5700384 396.8421 
1205.528 175.01591882 396.8421 1370.477 169.38230669 396.8421 1555.851 159.99834159 396.8421 
1718.696 149.50888312 396.8421 1831.49 141.157528 396.8421 2000.426 127.12947762 396.8421 
2142.278 114.02035118 396.8421 2199.537 108.39460776 396.8421 2362.236 91.366951377 396.8421 
2475.539 78.589084764 396.8421 2610.501 62.353225811 396.8421 2726.16 47.524926904 396.8421 
2807.613 36.551850085 396.8421 2862.05 28.963873719 396.8421 2898.509 23.764761472 396.8421 
2927.749 19.526041061 396.8421 1873.106 137.86677314 396.8421 1463.165 165.05775983 396.8421 
1538.054 -133.2786725 396.8421 1637.272 154.99629639 396.8421 1678.104 -123.44262107 396.8421 
1957.846 130.83083575 396.8421 2072.22 120.64320703 396.8421 1288 172.55167604 396.8421 
1961.524 -99.827656537 396.8421 2047.334 -91.813621816 396.8421 1770.393 145.78625984 396.8421 
2171.038 -79.610610527 396.8421 2301.989 97.852451828 396.8421 2250.655 103.21103823 396.8421 
1812.721 -112.79998105 396.8421 1803.29 143.32427767 396.8421 1915.411 134.40963903 396.8421 
2036.686 123.89182124 396.8421 2107.61 117.33359019 396.8421 2170.909 111.23119569 396.8421 
2284.511 -59.300190845 793.6842 3000.027 27.707629422 793.6842 299.6143 -21.839407607 793.6842 
288.9304 -6.6519791546 793.6842 285.3691 3.0781185612 793.6842 284.1801 13.024017325 793.6842 
286.5551 27.071266881 793.6842 290.1167 35.088863291 793.6842 297.2417 45.46853103 793.6842 
312.6379 60.274521543 793.6842 315.336 -35.669516383 793.6842 2197.597 -68.184903897 793.6842 
340.2947 -50.953362504 793.6842 367.0612 -63.229957837 793.6842 394.9839 -73.5215846 793.6842 
427.3123 -83.361623765 793.6842 470.3812 -94.088573359 793.6842 528.0998 -105.47537546 793.6842 
606.8411 -117.14466721 793.6842 713.6708 -127.98343298 793.6842 851.8104 -136.00899232 793.6842 
1014.904 -139.30352355 793.6842 1162.147 -138.04564615 793.6842 1276.298 -134.91984285 793.6842 
1370.288 -131.17818811 793.6842 1462.927 -126.59921351 793.6842 1567.436 -120.50281999 793.6842 
1696.021 -111.82014926 793.6842 1837.82 -100.93296937 793.6842 1955.917 -90.940914287 793.6842 
2332.447 -54.247483475 793.6842 2405.659 -46.322855849 793.6842 2508.105 -34.812465072 793.6842 
2633.037 -20.101092367 793.6842 2755.801 -4.898610405 793.6842 2841.209 6.133841036 793.6842 
2900.561 14.030522476 793.6842 2941.997 19.659702995 793.6842 2972.917 23.923622384 793.6842 
336.9995 76.351289094 793.6842 362.6396 89.073569301 793.6842 389.1182 99.747177205 793.6842 
416.8239 109.16848533 793.6842 447.3145 118.06267932 793.6842 483.0167 127.00764451 793.6842 
527.1009 136.38160071 793.6842 587.0697 146.86957321 793.6842 674.2905 158.63031211 793.6842 
783.9349 169.06300843 793.6842 928.7766 177.38975169 793.6842 1126.317 181.46469024 793.6842 
1310.735 179.664448 793.6842 1469.963 174.75767713 793.6842 1648.908 166.23756303 793.6842 
1806.105 156.52505193 793.6842 1914.987 148.71254033 793.6842 2078.064 135.48217691 793.6842 
2214.996 123.02666361 793.6842 2270.269 117.6592156 793.6842 2427.326 101.34475448 793.6842 
2536.699 89.043356524 793.6842 2666.98 73.351471486 793.6842 2778.628 58.967909566 793.6842 
2857.255 48.295862158 793.6842 2909.806 40.903442963 793.6842 2945.001 35.832790501 793.6842 
2973.224 31.695642576 793.6842 1955.16 145.61962526 793.6842 1559.437 170.8607522 793.6842 
1631.729 -116.31372875 793.6842 1727.505 161.6230667 793.6842 1766.921 -106.53684475 793.6842 
2036.96 138.98400874 793.6842 2147.368 129.32891367 793.6842 1390.347 177.55696597 793.6842 
2040.511 -83.313692053 793.6842 2123.346 -75.488026127 793.6842 1856.009 153.04969566 793.6842 
2242.759 -63.61305909 793.6842 2369.167 107.56993248 793.6842 2319.614 112.70313497 793.6842 
1896.869 -96.03593931 793.6842 1887.765 150.74485658 793.6842 1995.998 142.36289244 793.6842 
2113.066 132.41329516 793.6842 2181.531 126.18185487 793.6842 2242.634 120.36709511 793.6842 
2354.732 -46.126236676 1190.526 3044.539 37.374196186 1190.526 441.15 -13.637398486 1190.526 
430.8497 0.94299643841 1190.526 427.4164 10.295416294 1190.526 426.2701 19.863718149 1190.526 
428.5601 33.391654253 1190.526 431.9934 41.120456063 1190.526 438.8627 51.134889997 1190.526 
453.7057 65.437692343 1190.526 456.3069 -26.894512352 1190.526 2270.94 -54.702459706 1190.526 
480.3688 -41.520109255 1190.526 506.1737 -53.246413251 1190.526 533.0934 -63.059726126 1190.526 
564.26 -72.425536968 1190.526 605.7815 -82.612891566 1190.526 661.4265 -93.393577232 1190.526 
737.3385 -104.39028956 1190.526 840.33 -114.52068196 1190.526 973.5064 -121.88356164 1190.526 
1130.74 -124.66883773 1190.526 1272.693 -123.14756245 1190.526 1382.742 -119.92266653 1190.526 
1473.356 -116.15911515 1190.526 1562.666 -111.60573635 1190.526 1663.42 -105.58947476 1190.526 
1787.385 -97.073601805 1190.526 1924.09 -86.449648602 1190.526 2037.944 -76.735572573 1190.526 
2400.946 -41.254389174 1190.526 2471.527 -33.620716545 1190.526 2570.292 -22.547230851 1190.526 
2690.735 -8.4161018746 1190.526 2809.091 6.1644117157 1190.526 2891.43 16.733122427 1190.526 
2948.647 24.29212997 1190.526 2988.597 29.677889618 1190.526 3018.403 33.75604123 1190.526 
477.1918 80.993689143 1190.526 501.9109 93.324692584 1190.526 527.4382 103.68588457 1190.526 
554.1485 112.84488931 1190.526 583.5435 121.50458158 1190.526 617.963 130.22868345 1190.526 
660.4633 139.39021645 1190.526 718.2775 149.67003215 1190.526 802.3645 161.25056115 1190.526 
908.0698 171.60491838 1190.526 1047.707 180.00622525 1190.526 1238.151 184.40515087 1190.526 
1415.942 183.06142813 1190.526 1569.449 178.6285245 1190.526 1741.965 170.70050177 1190.526 
1893.514 161.54330227 1190.526 1998.484 154.12860587 1190.526 2155.702 141.5082105 1190.526 
2287.714 129.5741921 1190.526 2341.001 124.41916236 1190.526 2492.415 108.7133973 1190.526 
2597.858 96.840317739 1190.526 2723.46 81.66385757 1190.526 2831.095 67.727479171 1190.526 
2906.899 57.374051399 1190.526 2957.56 50.196612916 1190.526 2991.49 45.270930433 1190.526 
3018.699 41.250668345 1190.526 2037.214 151.18460372 1190.526 1655.708 175.02125681 1190.526 
1725.403 -101.47475592 1190.526 1817.738 166.36034749 1190.526 1855.738 -91.911966695 1190.526 
2116.075 144.85501495 1190.526 2222.516 135.61795204 1190.526 1492.694 181.183395 1190.526 
2119.498 -69.338367761 1190.526 2199.357 -61.762118043 1190.526 1941.625 158.2490654 1190.526 
2314.479 -50.287766272 1190.526 2436.346 114.71232785 1190.526 2388.573 119.65355686 1190.526 
1981.017 -81.685089063 1190.526 1972.24 156.06056647 1190.526 2076.584 148.08013286 1190.526 
[...]
POINT_DATA 1740
FIELD FieldData 1
Pressure 1 1740 double
3.1046668485 3.0187144524 3.0095021866 2.9857592938 2.9789889964 2.959247089 2.9717330585 2.9889642777 3.0200384347 
3.0340867794 3.011366581 3.1086812414 3.0339212819 3.0484869179 3.0658062137 3.0654579691 3.0826357507 3.0877185536 
3.1091025563 3.1139442268 3.1328696902 3.141420061 3.1433163659 3.1496475432 3.1441172218 3.1402306991 3.1366492686 
3.1327753612 3.1257249193 3.1197056932 3.1021544469 3.0987068416 3.0932082435 3.0850760837 3.0742483001 3.0641961754 
3.0543585397 3.0456440099 3.0377217324 3.06994364 3.0815713095 3.0939521649 3.1068717206 3.1129362762 3.1197334819 
3.1268878194 3.1346476497 3.1502588792 3.1627504408 3.1791034986 3.1896340212 3.1964654195 3.2022659604 3.2077926186 
3.2120796908 3.2154748779 3.2162671482 3.1202859871 3.1004365454 3.0883360594 3.0817456098 3.0726299398 3.0627435086 
3.052271769 3.0417539144 3.0340719274 3.0328241987 3.2153129484 3.2056975331 3.1352790385 3.2095464432 3.1291468292 
3.2159186568 3.2162453434 3.2035277149 3.1159955949 3.1122328751 3.2135026222 3.1065109525 3.0928165291 3.0956171074 
3.1224040641 3.2150754849 3.2153209222 3.2167103028 3.2325444323 3.0998317546 3.1016509058 3.0235970494 3.0276909197 
3.0011343288 3.0078158422 2.9862745273 2.9932926835 3.0050435822 3.0337053252 3.0521134282 3.0359089391 3.1059712453 
3.0562186037 3.0687942161 3.0818841809 3.0859386506 3.1013225155 3.1109084712 3.1242518062 3.1293025082 3.1400841222 
3.1441997963 3.1479759846 3.1486533182 3.1435550071 3.138966522 3.1331769164 3.1290896964 3.1225133609 3.1168644791 
3.0993807014 3.0952822844 3.0897162101 3.0816206216 3.070791558 3.0607852733 3.0510602141 3.0434628269 3.028569249 
3.0851641371 3.1061496953 3.118055304 3.1267111997 3.1356503983 3.1405054164 3.1459269748 3.1558541313 3.1677856636 
3.1768464007 3.1858062298 3.1935106889 3.2000694852 3.2064360384 3.2096921019 3.2124950152 3.2157312397 3.2181012419 
3.095967793 3.0989754613 3.0911941876 3.0850588787 3.0765834981 3.0657346338 3.0553946439 3.0453219376 3.0386410299 
3.0392366384 3.2162164729 3.2079206541 3.1321171261 3.212453111 3.1254451673 3.2173737025 3.2136402297 3.2051854629 
3.1130545237 3.1093375527 3.2142208234 3.1039619332 3.094449413 3.0969360985 3.1197376636 3.214977598 3.2160601675 
3.2186067567 3.1461418494 3.0989499614 3.0995301522 3.0236997411 3.0279936311 3.0003621498 3.0018234742 2.9842710371 
2.9959229264 3.0096624455 3.0387599539 3.0598694509 3.0444685223 3.1037546148 3.0593525428 3.0783975848 3.0963486038 
3.1027438919 3.1155693937 3.123941761 3.1365645834 3.1427000572 3.1497800828 3.1522613815 3.1515834512 3.1498201745 
3.1430897207 3.1372175241 3.1314809888 3.1259035311 3.1201059544 3.1149381066 3.0972261831 3.0933816544 3.0875943496 
3.079734744 3.0687803159 3.0586552672 3.0495308689 3.0422764448 3.0290533758 3.0924644277 3.1141499033 3.1321624479 
3.1412571145 3.1523436258 3.1605708754 3.1703845047 3.174589049 3.1828913905 3.1928051748 3.1979782151 3.2033848189 
3.2061842024 3.2128649147 3.2153278012 3.2160550553 3.2180821235 3.2209446834 3.0959178574 3.094985369 3.0917083821 
3.0862985161 3.0782399892 3.0673461263 3.0572621286 3.0473985068 3.0401535258 3.0414528325 3.2187520318 3.2144513607 
3.129252569 3.2162346476 3.1228774331 3.2194836853 3.129224117 3.2103471043 3.1110066227 3.1071582269 3.2166660811 
3.1018780465 3.0942875101 3.0954772027 3.117454441 3.217191975 3.219044435 3.2203449768 3.0924935863 3.0963614602 
3.0979770032 3.023793619 3.0285510481 3.0001921721 3.002467731 2.98261113 2.9920535765 3.0068018515 3.0393834064 
3.0608841318 3.0442218716 3.1021963104 3.0646800185 3.0822913947 3.1015454394 3.1102292092 3.1225282603 3.1306071504 
3.1432086358 3.1505364208 3.1564602424 3.1572728699 3.1550877119 3.1508698389 3.143182518 3.1367059452 3.1306162836 
3.1246535475 3.1185209417 3.1132683666 3.0957118878 3.09190553 3.0863589171 3.0785851594 3.0678471665 3.0577816348 
3.0490560724 3.0418281201 3.0291476889 3.0962331248 3.1195481961 3.1346390363 3.1466645696 3.1537582001 3.1649428622 
3.1771173452 3.1867033248 3.1945542629 3.2045751712 3.2097834032 3.2142673863 3.2151276134 3.2208993438 3.2232353207 
3.2230011577 3.2240848672 3.2272735671 3.0930898951 3.0941218649 3.0910841737 3.0856737088 3.0774449286 3.0670852686 
3.0572768451 3.0476326917 3.0402178174 3.0416409468 3.2241729691 3.2220284382 3.128159756 3.2234129009 3.1214532394 
3.2246324185 3.0861424965 3.218407343 3.1094292188 3.105444909 3.22322601 3.100274046 3.0931711091 3.0939963651 
3.115845708 3.2233170893 3.224396709 3.1135675292 3.0914211088 3.0938351237 3.0970005086 3.0233112016 3.0306374538 
3.0008771585 3.0069458908 2.9863194796 2.9940463973 3.0077697496 3.0415229464 3.0620482823 3.0457246414 3.1011489139 
3.0673398735 3.0848369131 3.1019376599 3.1117148627 3.1245946227 3.1350061668 3.1459998799 3.15390801 3.1604344777 
3.1600660104 3.1565166407 3.1505696424 3.1423874574 3.1355840022 3.1292429707 3.1234760828 3.1174466473 3.1119780166 
3.0946877649 3.0908677567 3.0854194757 3.0777249288 3.0672232434 3.0573311708 3.0487824113 3.0414635086 3.0292482052 
3.0976675097 3.1213686659 3.1362000315 3.1490717064 3.1581658134 3.1693209569 3.1804059894 3.1861978702 3.1971492706 
3.2096935295 3.2182908607 3.222588852 3.2238630945 3.2286118356 3.2305103981 3.2302402808 3.2308510896 3.1192542871 
3.0908831451 3.0906910994 3.0884896969 3.0832386206 3.0751412575 3.0653045773 3.0557900769 3.04643972 3.0391137265 
3.0409766872 3.2310815693 3.2301138856 3.1269902646 3.2304959994 3.1203173384 3.2312085047 3.0896974144 3.22673384 
3.1081571221 3.1041973004 3.2302451777 3.0990726194 3.0904194322 3.0905876551 3.1147190585 3.2303242515 3.2310977905 
3.089484739 3.0908897667 3.0909296428 3.0961126276 3.0229374359 3.0317142759 3.0021804967 3.0088376914 2.9871923168 
2.9955123744 3.0091787483 3.042382496 3.0638965205 3.0467788941 3.1001528302 3.0686358718 3.0868613866 3.1029968169 
3.1132817026 3.1261912726 3.1374358792 3.1488437142 3.1569483048 3.1638141364 3.1623505697 3.1573532091 3.1498182972 
3.1414367075 3.1345042639 3.12824864 3.1222898303 3.1163676721 3.110920945 3.093787286 3.0899962084 3.0846423702 
3.0770176656 3.0666304342 3.0568023235 3.0483636259 3.0409789055 3.0292474315 3.0990628404 3.1231166678 3.1380992818 
3.1510302366 3.1600915728 3.1717758383 3.1841634944 3.1912712399 3.2025119598 3.2145491935 3.2249809366 3.2301454901 
3.2321449129 3.2375426261 3.2388380464 3.2376553357 3.2377726312 3.0849117857 3.0896919756 3.0891068042 3.086582879 
3.0817262704 3.0741002014 3.064364034 3.0549245682 3.0459224065 3.0385370633 3.0406039206 3.2379637791 3.2381476708 
3.1258204419 3.2382785451 3.1192178054 3.2472125854 3.089174936 3.234959048 3.1070826586 3.1032238894 3.2373312694 
3.0982443601 3.0884564918 3.0888216223 3.1136880679 3.2374748827 3.2436127883 3.0895560187 3.0894523128 3.0895019661 
3.0955057693 3.0228388084 3.0321068707 3.0023833256 3.0083329601 2.9867508885 2.9956404762 3.0093729426 3.0425169857 
3.0643595764 3.0473967572 3.0995594814 3.0693618498 3.0878739118 3.1038972849 3.114486308 3.1275288387 3.1392635264 
3.1507689478 3.1589744866 3.1663456609 3.1640732517 3.1578678817 3.1491359756 3.1408038642 3.1338611425 3.1277078317 
3.1214934556 3.1156609009 3.110248861 3.0932198172 3.0894362236 3.0841255883 3.0765515747 3.0662236866 3.0563771685 
3.0479964511 3.0405393691 3.029169529 3.0995424893 3.1238575379 3.1392532662 3.1522966517 3.1617556697 3.1735051246 
3.1858138433 3.1937173353 3.2054176923 3.2185038276 3.2298489201 3.2365781318 3.2396454117 3.2456840513 3.2472972057 
3.2461143053 3.2455439121 3.0847734114 3.0888131962 3.0882681961 3.0866835431 3.0819304829 3.0744473944 3.0646266807 
3.0552622562 3.0462735124 3.0388149875 3.0410429515 3.2453070406 3.246706999 3.1251145129 3.2470031847 3.1184801519 
3.2101836899 3.0876237218 3.2428013689 3.1064066696 3.1025754698 3.2454731019 3.0976069108 3.0883886038 3.0887906843 
3.1129401041 3.2452138514 3.2521957116 3.0879497969 3.0877989713 3.0889352786 3.0951533944 3.0225282056 3.0323848727 
3.0026658379 3.0084637411 2.9869523857 2.9958159901 3.0094630118 3.0426934849 3.0646286921 3.0477563391 3.0992808225 
3.0698545209 3.0883231687 3.1042967416 3.115131214 3.1283580185 3.1404820142 3.1520386303 3.160377629 3.1681337571 
3.1653111123 3.1580440728 3.148592523 3.1403975203 3.1335047724 3.1274257895 3.120973807 3.1152922532 3.1098584105 
3.0928772881 3.0891240663 3.0838873802 3.0763329322 3.0660407167 3.0561156149 3.0477771412 3.0402163207 3.0292959276 
3.0998196524 3.1243110551 3.1399231462 3.1530904116 3.1626964199 3.1745410702 3.1869373459 3.1954692444 3.2074741533 
3.2209605993 3.2329697904 3.2409986532 3.2455925083 3.2523392826 3.254612123 3.2541105603 3.2535233822 3.0829732719 
3.0862411942 3.0858628202 3.0848849187 3.0803621389 3.0732648137 3.0638465139 3.0548260501 3.0459586853 3.0384524599 
3.0409414005 3.2531430562 3.2542306667 3.1246489262 3.2545144699 3.1180735746 3.1771088861 3.0836571048 3.2491802783 
3.1060551287 3.1022945265 3.2536414817 3.0972497944 3.0864937829 3.0864717588 3.112537188 3.2532418717 3.2567399423 
3.0860438254 3.0852172091 3.0870546231 3.0949852535 3.0220390346 3.0327180431 3.0030368789 3.008814979 2.987217519 
2.9961439058 3.009762191 3.0429898401 3.0650126285 3.04808772 3.0990349525 3.0702125271 3.088916487 3.1048182698 
3.1158377742 3.1291014631 3.141489173 3.153086513 3.1616734663 3.169581679 3.1663770518 3.1582164713 3.1484005962 
3.1402857314 3.1333879308 3.1273676445 3.1208638934 3.1151738787 3.1097354477 3.092712548 3.0889816621 3.0838141286 
3.0762137993 3.0659767462 3.0559330619 3.0476306113 3.039987395 3.0294990361 3.1001945243 3.1247753826 3.1405431036 
3.1537897013 3.1634954506 3.1754067349 3.1877874747 3.1967180234 3.2090238458 3.2227946152 3.2351326026 3.2443738865 
3.2498284906 3.2574558751 3.2612043189 3.260722961 3.2608371959 3.0802571548 3.0846250859 3.0840766398 3.0824060551 
3.078152107 3.0713549 3.0622016802 3.0534005925 3.044880656 3.0372933547 3.0402411344 3.2611463172 3.2595539062 
3.1245862885 3.2610633368 3.1179918756 3.1535553011 3.0820413999 3.2538045846 3.1059531003 3.1022534454 3.2606145214 
3.0970101129 3.083883963 3.0840647341 3.1123708942 3.260385354 3.2642167037 3.0843053536 3.0839807275 3.0850975775 
3.0949169066 3.0219259316 3.0330405413 3.0033750034 3.0092310644 2.987469397 2.9964282648 3.0100482145 3.0432819025 
3.0654110453 3.0483327518 3.0988887727 3.0704490788 3.0892259766 3.105224527 3.1163867191 3.1296895888 3.1422696329 
3.1539827058 3.1628893632 3.1708711088 3.167444028 3.1586108981 3.1485880878 3.1404174998 3.1335344638 3.1274924998 
3.1210249119 3.1152701037 3.1097485026 3.0926883701 3.0889536624 3.0838607271 3.0762210778 3.0660334203 3.0559275452 
3.0476453816 3.0399537726 3.0297109831 3.1006085901 3.1252615556 3.1411502588 3.1544413343 3.1642405184 3.1761731307 
3.1885572006 3.1977367034 3.2102834814 3.224238179 3.236772351 3.2464540386 3.2527539387 3.260962698 3.2648698065 
3.2660055302 3.2664170138 3.0800430633 3.0849789625 3.0835168012 3.0811740329 3.0770240338 3.0704637314 3.0611994611 
3.0524312844 3.0442020524 3.0365940668 3.0396210057 3.2667173736 3.2634967557 3.1247476572 3.2659139335 3.1181250012 
3.172887034 3.081125933 3.2570497224 3.1060407883 3.1022175408 3.2660891808 3.0968308058 3.082765501 3.0831508408 
3.1123572083 3.2661178672 3.2694403178 3.0847903651 3.0833782315 3.0852067609 3.0950585427 3.0221991497 3.0333660845 
3.003691501 3.009650414 2.9877555067 2.9967055124 3.0103002657 3.0435894459 3.0658077301 3.048455614 3.0991417815 
3.0705662935 3.0893238406 3.1053832147 3.116682227 3.1300534428 3.1427939988 3.1547729723 3.1638897616 3.1720421799 
3.1685989598 3.1593252592 3.1491424263 3.1408045482 3.1339457724 3.1278250116 3.121466845 3.1155511186 3.1099874964 
3.0928770036 3.0891253101 3.0840515026 3.0763695024 3.0662391872 3.0560777935 3.0478171791 3.040087298 3.0298649127 
3.1010591391 3.1257615872 3.1417367576 3.1550683305 3.1649285756 3.1768655356 3.1892594116 3.1986079199 3.2113352798 
3.225395558 3.2380722272 3.24792518 3.2546056426 3.2633124688 3.2675454946 3.269202019 3.2701205777 3.0806060404 
3.0851089682 3.0835012817 3.0806824981 3.0764405825 3.0700982995 3.0607878278 3.0520939059 3.0440289171 3.0365081917 
3.0394475394 3.2707009485 3.2659938371 3.1251893779 3.2689089696 3.1184869708 3.1936483565 3.0817455232 3.2591133827 
3.1063105455 3.1025569238 3.2696939338 3.0969384505 3.0823135751 3.0826693777 3.1125695308 3.2697870213 3.2739059502 
3.0860042511 3.0835671464 3.0858098895 3.095440521 3.0226264692 3.0336673434 3.0039794057 3.0101214831 2.9880968859 
2.996999612 3.0105666052 3.0439505968 3.0662197275 3.0485037753 3.0995638936 3.0705476517 3.0893284912 3.1054877863 
3.1169285049 3.1303322566 3.1431957151 3.1554282048 3.1649749004 3.173236103 3.16997908 3.1605002112 3.1500201638 
3.1414367952 3.1345775413 3.1283337999 3.1219821831 3.1159858946 3.1103775735 3.0932311903 3.0894229337 3.0843631701 
3.0766155128 3.066530221 3.0562980135 3.0480510719 3.0402900734 3.0301045457 3.1015674763 3.1262962782 3.1423526471 
3.15571426 3.1656141564 3.1775552489 3.1899345833 3.1994262086 3.212318239 3.2263833538 3.2391458115 3.2490755697 
3.2558937519 3.2648581203 3.269187426 3.2712249771 3.2725383903 3.0808913561 3.0834012544 3.0823974422 3.0799501814 
3.0756615964 3.0695243415 3.0602822394 3.0517161543 3.0438398417 3.0364406035 3.0392812785 3.2731416225 3.2677234849 
3.12571467 3.270793375 3.1189515305 3.2000443943 3.0811879136 3.2604828778 3.1067089149 3.103041824 3.2718332877 
3.0972970718 3.0815021581 3.0816875556 3.1129314475 3.27207311 3.2763270628 3.0857210767 3.0824389348 3.0843319389 
3.0958247964 3.0229627654 3.0339734454 3.0042269486 3.0105883032 2.9884906928 2.9973177419 3.0108825676 3.0444107485 
3.0666840412 3.0483696462 3.0999539467 3.0703372069 3.0891934937 3.1055101432 3.1171025155 3.1305445354 3.1435121995 
3.1560496177 3.1659019779 3.1743771474 3.1715402193 3.1620972677 3.1510940029 3.1421671848 3.1352285481 3.128867197 
3.1225112957 3.1164431248 3.1107844957 3.0935642678 3.0897091334 3.0846646219 3.0768476427 3.0667812205 3.0565022219 
3.0482560758 3.0404806968 3.0303007049 3.1021840177 3.126900272 3.1430973852 3.1565093924 3.1664129806 3.178366947 
3.1907082386 3.2003117066 3.2133741773 3.2273412249 3.2401034994 3.2501149865 3.2569186289 3.2658646 3.2704902379 
3.2726282957 3.2740548466 3.079886953 3.0811419673 3.0806412885 3.0791297152 3.0749357213 3.0689575226 3.0597313475 
3.0512299618 3.0435460161 3.0362628171 3.0389907959 3.27491842 3.2689390331 3.1262752948 3.2721466619 3.1194245064 
3.1958678828 3.080207557 3.2614860423 3.1071042623 3.1033965311 3.2732953256 3.097650958 3.0805581734 3.0804215776 
3.1133256248 3.2735647781 3.2781553804 3.084415236 3.0821359729 3.0817153868 3.096153512 3.0231861866 3.0344297193 
3.0044744431 3.0110769101 2.9890453776 2.997749006 3.0113015764 3.0451544121 3.0673323969 3.0480532316 3.1002876962 
3.0700253487 3.0889171805 3.1054248647 3.1172227415 3.1306419381 3.1437316131 3.1565276714 3.1670820647 3.1754816561 
3.1732948433 3.1640866887 3.1522538824 3.142870491 3.1357553274 3.1292684729 3.122930177 3.1167596985 3.1111056952 
3.0938579973 3.0899877124 3.0849171983 3.0770753727 3.0669764541 3.0566947465 3.0484238544 3.0406750854 3.0302742439 
3.1030319692 3.127705151 3.1441143221 3.1575239192 3.1674336542 3.1793432917 3.1916863786 3.2013510692 3.2145725646 
3.2283326263 3.2411043132 3.251051748 3.2578329253 3.2666717147 3.2714032753 3.2737402055 3.275249326 3.0771149414 
3.080093679 3.0797576665 3.0785382218 3.0744491094 3.0683973477 3.0592289881 3.0507961907 3.0432099078 3.0360877519 
3.0386402789 3.2761342373 3.2698435331 3.12673246 3.2731341857 3.1197801807 3.1578831549 3.0796363385 3.2623118995 
3.1074181887 3.1036793252 3.2744235871 3.0980023846 3.0798004831 3.0797798226 3.1136474808 3.2746891054 3.276454994 
3.0819382211 3.0816163592 3.0803432273 3.0965439517 3.0232827088 3.034882216 3.0047905736 3.0116228466 2.9899004219 
2.9984072453 3.0119169538 3.0460861186 3.0682348564 3.0476176086 3.1007017285 3.0694493755 3.0883961159 3.105112721 
3.117055817 3.1304029196 3.1435252255 3.1568009815 3.1676021525 3.1767263575 3.175322987 3.1666464189 3.1536692974 
3.1435641072 3.1361685718 3.1295488674 3.12333742 3.1171127345 3.1115675761 3.0942447717 3.0904150787 3.0852440498 
3.0774368133 3.067222112 3.0569342887 3.0486014475 3.0408586042 3.0299739891 3.1039895266 3.1287450165 3.145053418 
3.1584649186 3.1684648634 3.1802543249 3.192693426 3.2024979334 3.2157710324 3.2293710289 3.2419709283 3.2522780327 
3.2589193879 3.2675850163 3.272879088 3.2754070819 3.2770862837 3.0791074252 3.079700566 3.079393235 3.0779024818 
3.0739075085 3.0676251765 3.0587339133 3.0504597362 3.0429088804 3.0359446307 3.0385209445 3.2778940686 3.2708158394 
3.1271530054 3.2746003669 3.1201583208 3.1239180919 3.0793871553 3.2632556922 3.1077813435 3.1040805271 3.275900473 
3.0984679375 3.0791832834 3.0793777573 3.1142033612 3.2763426559 3.2761953814 3.0817487528 3.0798296884 3.0797462176 
3.0970722961 3.0232932184 3.0337276988 3.0039785813 3.0116429696 2.9898212913 2.9986530638 3.0122565817 3.046311223 
3.0688518264 3.0465062696 3.1014101544 3.0678410196 3.0870394903 3.1040905607 3.1163626155 3.1296923041 3.1421790621 
3.1569833356 3.1671683022 3.1778226422 3.177894689 3.1698650739 3.1556373999 3.144584982 3.1367437553 3.1300498448 
3.1238719966 3.1185618618 3.1126333061 3.0947892912 3.0909524663 3.0856575134 3.0778384125 3.0674206662 3.0570977617 
3.0486664101 3.0408759626 3.0289938026 3.1046913683 3.1295689985 3.1458898732 3.1591861433 3.169297293 3.1811430274 
3.193618315 3.2036679461 3.2170490456 3.2306115605 3.2437005681 3.2536291744 3.2605414041 3.2694396442 3.2761483613 
3.2784816605 3.278597391 3.0749449303 3.0800010596 3.0797538352 3.0780507307 3.0738767871 3.0674259499 3.0588278849 
3.0507146162 3.0430875773 3.0362370471 3.0388981075 3.2843540163 3.2731107772 3.1277484002 3.2775495502 3.1208447257 
3.0697741326 3.0798422109 3.2647517019 3.1086407767 3.1046677898 3.2784940069 3.0991009679 3.0794443453 3.0795354349 
3.1155189044 3.2785698014 3.0902652967 3.0812535037 3.0798645308 3.079937341 3.0975177962 3.023110507 3.0323440568 
3.0018270664 3.0066417572 2.988132036 2.9976863851 3.0120081645 3.0459445537 3.0691012191 3.0446616385 3.1015669391 
3.0664328372 3.0853736749 3.1032605258 3.1151542234 3.1283616841 3.1405142127 3.1575829838 3.1687861505 3.1804181254 
3.1829303007 3.1745045671 3.1595137974 3.1462976337 3.1376498685 3.1312396489 3.1247490314 3.1185937928 3.1134468701 
3.0954244598 3.0914992037 3.0860950974 3.0784688666 3.0676277504 3.0571017896 3.0483894165 3.0406336914 3.0268681063 
3.1057199175 3.130383067 3.1471028153 3.1606454563 3.1708120621 3.1826806553 3.1948894795 3.2058276019 3.219687092 
3.233704033 3.2472877254 3.2603935315 3.2647674682 3.2731781784 3.27837301 3.278082778 3.2804952509 3.0848239486 
3.0816885318 3.0813876163 3.0798692252 3.0754537253 3.0694781623 3.0604364153 3.0524108531 3.0446568054 3.0375992621 
3.0406564092 3.1942980166 3.276447037 3.1283290405 3.2785566819 3.1216148721 3.082903345 3.0813445576 3.2683350932 
3.1088328149 3.1049125268 3.2778304674 3.0996357304 3.0809622423 3.0813958267 3.11609999 3.2766966279 3.0717688935 
3.085367873 3.0819003482 3.0816885624 3.0980061195 3.0254421594 3.0342603661 3.004666611 3.0078581627 2.9896411875 
3.0002957601 3.015196702 3.0503564367 3.0709960703 3.0473123684 3.1019172041 3.066360346 3.0867187055 3.1024430413 
3.1163016249 3.1296784341 3.1419910289 3.1618700022 3.1826517 3.1871113701 3.1864171921 3.1769445023 3.1605032261 
3.1472304059 3.1380159291 3.1311848054 3.1237282057 3.1164413482 3.1113109788 3.0951790207 3.0927153752 3.0869288192 
3.0776563581 3.0679166359 3.0566394258 3.0473826257 3.038903019 3.0243612274 3.104815392 3.1314461797 3.152631798 
3.1665471207 3.1755779713 3.1916508433 3.2007193407 3.2111597715 3.2292086939 3.2411786755 3.2571068895 3.2663180328 