# vtk DataFile Version 4.2
vtk output
ASCII
DATASET POLYDATA
POINTS 6318 float
2349.34 -3237.17 5800 2356.44 -3250.17 5800 2730.83 -3250.16 5800 
2754.85 -3238.86 5800 2758.47 -3237.15 5800 2342.23 -3224.17 5800 
2348.83 -3236.24 5800 2783.85 -3225.22 5800 2786.11 -3224.15 5800 
2335.13 -3211.17 5800 2812.85 -3211.57 5800 2813.75 -3211.15 5800 
2328.03 -3198.17 5800 2841.38 -3198.15 5800 2321.43 -3185.17 5800 
2841.85 -3197.93 5800 2869.02 -3185.15 5800 2315.23 -3172.16 5800 
2319.84 -3181.82 5800 2870.85 -3184.28 5800 2896.66 -3172.14 5800 
2309.04 -3159.16 5800 2899.86 -3170.64 5800 2924.3 -3159.14 5800 
2302.85 -3146.16 5800 2928.86 -3154.93 5800 2933.09 -3146.14 5800 
2296.66 -3133.16 5800 2939.42 -3133.14 5800 2290.47 -3120.16 5800 
2290.84 -3120.94 5800 2945.76 -3120.14 5800 2284.28 -3107.16 5800 
2952.1 -3107.14 5800 2278.09 -3094.16 5800 2957.86 -3095.31 5800 
2958.43 -3094.14 5800 2271.89 -3081.16 5800 2964.77 -3081.13 5800 
2265.7 -3068.16 5800 2971.11 -3068.13 5800 2259.51 -3055.16 5800 
2261.84 -3060.05 5800 2977.44 -3055.13 5800 2253.32 -3042.16 5800 
2983.78 -3042.13 5800 2247.13 -3029.16 5800 2986.87 -3035.79 5800 
2990.12 -3029.13 5800 2240.94 -3016.15 5800 2996.45 -3016.13 5800 
2234.75 -3003.15 5800 3002.79 -3003.13 5800 2228.55 -2990.15 5800 
2232.85 -2999.17 5800 3009.13 -2990.13 5800 2222.36 -2977.15 5800 
3015.46 -2977.13 5800 2216.17 -2964.15 5800 3015.88 -2976.28 5800 
3021.8 -2964.12 5800 2209.98 -2951.15 5800 3028.14 -2951.12 5800 
2203.79 -2938.15 5800 2203.85 -2938.28 5800 3034.47 -2938.12 5800 
2197.6 -2925.15 5800 3040.81 -2925.12 5800 2191.4 -2912.15 5800 
3044.88 -2916.77 5800 3047.15 -2912.12 5800 2185.21 -2899.15 5800 
3053.48 -2899.12 5800 2179.02 -2886.15 5800 3059.82 -2886.12 5800 
2172.83 -2873.15 5800 2174.85 -2877.39 5800 3066.16 -2873.12 5800 
2166.64 -2860.15 5800 3072.49 -2860.11 5800 2160.45 -2847.14 5800 
3073.89 -2856.93 5800 3077.92 -2847.11 5800 2147.3 -2834.14 5800 
3083.19 -2834.11 5800 2127.58 -2821.14 5800 2145.86 -2833.19 5800 
3088.46 -2821.11 5800 2105.73 -2808.14 5800 2116.86 -2814.38 5800 
3093.74 -2808.11 5800 2082.54 -2795.14 5800 2087.86 -2798.12 5800 
3099.01 -2795.11 5800 2059.35 -2782.14 5800 3102.89 -2785.53 5800 
3104.28 -2782.11 5800 2036.16 -2769.14 5800 2058.86 -2781.86 5800 
3109.56 -2769.11 5800 2012.98 -2756.14 5800 2029.86 -2765.61 5800 
3114.83 -2756.1 5800 1989.79 -2743.14 5800 2000.86 -2749.35 5800 
3120.1 -2743.1 5800 1966.6 -2730.14 5800 1971.86 -2733.09 5800 
3125.37 -2730.1 5800 1943.41 -2717.14 5800 3130.65 -2717.1 5800 
1928.77 -2704.14 5800 1942.86 -2716.83 5800 3131.9 -2714.01 5800 
3135.92 -2704.1 5800 1923.98 -2691.14 5800 3141.19 -2691.1 5800 
1921.62 -2678.14 5800 3146.47 -2678.1 5800 1920.25 -2665.14 5800 
3151.74 -2665.1 5800 1920.41 -2652.14 5800 3157.01 -2652.1 5800 
1920.56 -2639.14 5800 3160.91 -2642.49 5800 3162.28 -2639.09 5800 
1920.71 -2626.14 5800 3167.56 -2626.09 5800 1920.87 -2613.13 5800 
3172.83 -2613.09 5800 1921.02 -2600.13 5800 3178.1 -2600.09 5800 
1921.18 -2587.13 5800 3183.38 -2587.09 5800 1921.33 -2574.13 5800 
3188.65 -2574.09 5800 1921.49 -2561.13 5800 3189.91 -2570.97 5800 
3193.92 -2561.09 5800 1921.64 -2548.13 5800 3199.19 -2548.09 5800 
1921.8 -2535.13 5800 3204.47 -2535.08 5800 1921.95 -2522.13 5800 
3209.74 -2522.08 5800 1922.11 -2509.13 5800 3215.01 -2509.08 5800 
1922.26 -2496.13 5800 3218.92 -2499.45 5800 3220.29 -2496.08 5800 
1922.42 -2483.12 5800 3225.56 -2483.08 5800 1922.57 -2470.12 5800 
3230.83 -2470.08 5800 1922.73 -2457.12 5800 3239.17 -2457.08 5800 
1922.88 -2444.12 5800 3247.92 -2447.78 5800 3251.29 -2444.08 5800 
1923.04 -2431.12 5800 3264.16 -2431.07 5800 1923.19 -2418.12 5800 
3276.93 -2418.19 5800 3277.02 -2418.07 5800 1923.34 -2405.12 5800 
3285.47 -2405.07 5800 1923.5 -2392.12 5800 3289.42 -2392.07 5800 
1923.65 -2379.12 5800 3291.35 -2379.07 5800 1923.81 -2366.12 5800 
3293.28 -2366.07 5800 1923.96 -2353.11 5800 3295.21 -2353.07 5800 
1924.12 -2340.11 5800 3297.37 -2340.07 5800 1924.27 -2327.11 5800 
3299.03 -2327.07 5800 1924.43 -2314.11 5800 3300.65 -2314.06 5800 
1924.64 -2301.11 5800 3302.22 -2301.06 5800 1924.87 -2288.11 5800 
3303.76 -2288.06 5800 1925.1 -2275.11 5800 3305.26 -2275.06 5800 
1925.33 -2262.11 5800 3305.94 -2269.05 5800 3306.46 -2262.06 5800 
1925.6 -2249.11 5800 3307.42 -2249.06 5800 1925.88 -2236.11 5800 
3308.38 -2236.06 5800 1926.15 -2223.1 5800 3309.34 -2223.06 5800 
1926.42 -2210.1 5800 3310.3 -2210.06 5800 1926.7 -2197.1 5800 
3311.27 -2197.05 5800 1926.97 -2184.1 5800 3312.23 -2184.05 5800 
1927.24 -2171.1 5800 3313.19 -2171.05 5800 1927.52 -2158.1 5800 
3314.15 -2158.05 5800 1927.79 -2145.1 5800 3315.11 -2145.05 5800 
1928.07 -2132.1 5800 3316.08 -2132.05 5800 1928.34 -2119.1 5800 
3317.04 -2119.05 5800 1928.61 -2106.1 5800 3318 -2106.05 5800 
1928.89 -2093.09 5800 3318.96 -2093.05 5800 1929.16 -2080.09 5800 
3319.92 -2080.05 5800 1929.44 -2067.09 5800 3320.89 -2067.04 5800 
1929.71 -2054.09 5800 3321.85 -2054.04 5800 1929.5 -2041.09 5800 
3322.81 -2041.04 5800 1926.4 -2028.09 5800 3323.77 -2028.04 5800 
1923.05 -2015.09 5800 3324.73 -2015.04 5800 1919.7 -2002.09 5800 
3325.7 -2002.04 5800 1916.35 -1989.09 5800 3326.66 -1989.04 5800 
1913 -1976.09 5800 1913.91 -1979.62 5800 3327.62 -1976.04 5800 
1909.66 -1963.09 5800 3328.58 -1963.04 5800 1906.31 -1950.08 5800 
3329.48 -1950.04 5800 1902.96 -1937.08 5800 3330.22 -1937.03 5800 
1899.61 -1924.08 5800 3330.92 -1924.03 5800 1896.27 -1911.08 5800 
3331.62 -1911.03 5800 1892.92 -1898.08 5800 3332.33 -1898.03 5800 
1889.57 -1885.08 5800 3333.03 -1885.03 5800 1886.22 -1872.08 5800 
3333.73 -1872.03 5800 1883.24 -1859.08 5800 1884.92 -1867.02 5800 
3334.43 -1859.03 5800 1881.4 -1846.08 5800 3334.97 -1849.05 5800 
3335.14 -1846.03 5800 1880.45 -1833.08 5800 3335.84 -1833.03 5800 
1883.61 -1820.07 5800 3336.54 -1820.03 5800 1884.93 -1814.68 5800 
1886.98 -1807.07 5800 3337.24 -1807.02 5800 1889.94 -1794.07 5800 
3337.94 -1794.02 5800 1893.1 -1781.07 5800 3338.65 -1781.02 5800 
1896.26 -1768.07 5800 3339.35 -1768.02 5800 1899.43 -1755.07 5800 
3340.05 -1755.02 5800 1902.59 -1742.07 5800 3340.75 -1742.02 5800 
1905.75 -1729.07 5800 3341.46 -1729.02 5800 1908.92 -1716.07 5800 
3342.16 -1716.02 5800 1912.08 -1703.07 5800 3342.86 -1703.02 5800 
1913.94 -1695.43 5800 1915.24 -1690.06 5800 3343.56 -1690.01 5800 
1918.4 -1677.06 5800 3344.26 -1677.01 5800 1921.57 -1664.06 5800 
3344.97 -1664.01 5800 1924.73 -1651.06 5800 3345.67 -1651.01 5800 
1927.89 -1638.06 5800 3344.56 -1638.01 5800 1931.05 -1625.06 5800 
3341.3 -1625.01 5800 1934.22 -1612.06 5800 3335.1 -1612.01 5800 
1937.39 -1599.06 5800 3334.99 -1611.78 5800 3328.9 -1599.01 5800 
1940.56 -1586.06 5800 3322.7 -1586.01 5800 1942.95 -1576.18 5800 
1943.71 -1573.05 5800 3316.49 -1573.01 5800 1946.95 -1560.05 5800 
3312.74 -1560.01 5800 1950.22 -1547.05 5800 3310.58 -1547 5800 
1953.46 -1534.05 5800 3308.92 -1534 5800 1956.73 -1521.05 5800 
3307.26 -1521 5800 1960 -1508.05 5800 3306 -1511.11 5800 
3305.7 -1508 5800 1961.86 -1495.05 5800 3304.56 -1495 5800 
1962.98 -1482.05 5800 3303.54 -1482 5800 1964.11 -1469.05 5800 
3302.64 -1469 5800 1965.23 -1456.04 5800 3301.82 -1456 5800 
1966.36 -1443.04 5800 3301.52 -1443 5800 1967.48 -1430.04 5800 
3301.98 -1430 5800 1968.61 -1417.04 5800 3302.44 -1417 5800 
1969.73 -1404.04 5800 3302.91 -1403.99 5800 1970.85 -1391.04 5800 
3303.37 -1390.99 5800 1971.96 -1378.23 5800 1971.98 -1378.04 5800 
3303.83 -1377.99 5800 1973.1 -1365.04 5800 3304.3 -1364.99 5800 
1974.23 -1352.04 5800 3304.76 -1351.99 5800 1975.33 -1339.03 5800 
3305.22 -1338.99 5800 1975.95 -1326.03 5800 3305.69 -1325.99 5800 
1976.49 -1313.03 5800 3306.01 -1316.9 5800 3306.15 -1312.99 5800 
1977.04 -1300.03 5800 3306.62 -1299.99 5800 1977.58 -1287.03 5800 
3307.08 -1286.98 5800 1978.12 -1274.03 5800 3307.54 -1273.98 5800 
1978.67 -1261.03 5800 3308.01 -1260.98 5800 1979.21 -1248.03 5800 
3308.48 -1247.98 5800 1979.75 -1235.03 5800 3308.95 -1234.98 5800 
1980.3 -1222.03 5800 3309.43 -1221.98 5800 1980.84 -1209.02 5800 
3309.92 -1208.98 5800 1981.38 -1196.02 5800 3310.41 -1195.98 5800 
1981.92 -1183.02 5800 3310.97 -1182.98 5800 1982.47 -1170.02 5800 
3311.55 -1169.98 5800 1983.78 -1157.02 5800 3312.14 -1156.97 5800 
1985.08 -1144.02 5800 3312.72 -1143.97 5800 1986.26 -1131.02 5800 
3313.3 -1130.97 5800 1987.62 -1118.02 5800 3313.89 -1117.97 5800 
1989.34 -1105.02 5800 3314.47 -1104.97 5800 1992.79 -1092.02 5800 
3314.57 -1091.97 5800 2000.99 -1080.23 5800 2001.47 -1079.01 5800 
3314.45 -1078.97 5800 2005.38 -1066.01 5800 3314.33 -1065.97 5800 
2007.69 -1053.01 5800 2580.16 -1052.99 5800 2581.01 -1053.29 5800 
2581.78 -1052.99 5800 3314.21 -1052.97 5800 2010.1 -1040.01 5800 
2550.61 -1039.99 5800 2552.01 -1041.99 5800 2610.01 -1041.94 5800 
2617.38 -1039.99 5800 3314.09 -1039.97 5800 2012.62 -1027.01 5800 
2539.77 -1026.99 5800 2639.01 -1035.78 5800 2668.01 -1031.36 5800 
2696.78 -1026.99 5800 3313.97 -1026.96 5800 2015.26 -1014.01 5800 
2521.49 -1013.99 5800 2523.01 -1014.95 5800 2697.01 -1026.95 5800 
2726.02 -1022.54 5800 2755.02 -1019 5800 2759.35 -1013.98 5800 
3313.85 -1013.96 5800 2018.02 -1001.01 5800 2500.95 -1000.99 5800 
2769.21 -1000.98 5800 3313.72 -1000.96 5800 2020.91 -988.006 5800 
2480.4 -987.99 5800 2494.01 -996.602 5800 2777.52 -987.98 5800 
3312.94 -987.962 5800 2023.95 -975.005 5800 2459.81 -974.99 5800 
2465.01 -978.254 5800 2784.02 -975.392 5800 2784.22 -974.979 5800 
3312.31 -974.961 5800 2027.14 -962.004 5800 2438.49 -961.99 5800 
2790.36 -961.978 5800 3310.82 -961.96 5800 2030 -950.222 5800 
2030.17 -949.003 5800 2416.79 -948.99 5800 2436.01 -960.505 5800 
2796.51 -948.977 5800 3307.88 -948.959 5800 2031.69 -936.002 5800 
2399.93 -935.989 5800 2407.01 -943.134 5800 2802.76 -935.975 5800 
3306.04 -940.803 5800 3304.95 -935.958 5800 2033.25 -923.001 5800 
2389.66 -922.989 5800 2808.94 -922.974 5800 3302.18 -922.957 5800 
2034.87 -910 5800 2381.76 -909.988 5800 2813.03 -914.018 5800 
[...]
POINT_DATA 6318
SCALARS Pressure double
LOOKUP_TABLE default
3.0932710339 3.0932710339 3.0932710339 3.0932710339 3.0932710339 3.0932710339 3.0932710339 3.0932710339 3.0932710339 
3.0932710339 3.0932710339 3.0932710339 3.0932710339 3.0932710339 3.0932710339 3.0932710339 3.0932710339 3.0932710339 
3.0932710339 3.0932710339 3.0932710339 3.0932710339 3.0932710339 3.0932710339 3.0932710339 3.0932710339 3.0932710339 
3.0932710339 3.0932710339 3.0932710339 3.0932710339 3.0932710339 3.0932710339 3.0932710339 3.0932710339 3.0932710339 
3.0932710339 3.0932710339 3.0932710339 3.0932710339 3.0932710339 3.0932710339 3.0932710339 3.0932710339 3.0932710339 
3.0932710339 3.0932710339 3.0932710339 3.0932710339 3.0932710339 3.0932710339 3.0932710339 3.0932710339 3.0932710339 
3.0932710339 3.0932710339 3.0932710339 3.0932710339 3.0932710339 3.0932710339 3.0932710339 3.0932710339 3.0932710339 
3.0932710339 3.0932710339 3.0932710339 3.0932710339 3.0932710339 3.0932710339 3.0932710339 3.0932710339 3.0932710339 
3.0932710339 3.0932710339 3.0932710339 3.0932710339 3.0932710339 3.0932710339 3.0932710339 3.0932710339 3.0932710339 
3.0932710339 3.0932710339 3.0932710339 3.0932710339 3.0932710339 3.0932710339 3.0932710339 3.0932710339 3.0932710339 
3.0932710339 3.0932710339 3.0932710339 3.0932710339 3.0932710339 3.0932710339 3.0932710339 3.0932710339 3.0932710339 
3.0932710339 3.0932710339 3.0932710339 3.0932710339 3.0932710339 3.0932710339 3.0932710339 3.0932710339 3.0932710339 
3.0932710339 3.0932710339 3.0932710339 3.0932710339 3.0932710339 3.0932710339 3.0932710339 3.0932710339 3.0932710339 
3.0932710339 3.0932710339 3.0932710339 3.0932710339 3.0932710339 3.0932710339 3.0932710339 3.0932710339 3.0932710339 
3.0932710339 3.0932710339 3.0932710339 3.0932710339 3.0932710339 3.0932710339 3.0932710339 3.0932710339 3.0932710339 
3.0932710339 3.0932710339 3.0932710339 3.0932710339 3.0932710339 3.0932710339 3.0932710339 3.0932710339 3.0932710339 
3.0932710339 3.0932710339 3.0932710339 3.0932710339 3.0932710339 3.0932710339 3.0932710339 3.0932710339 3.0932710339 
3.0932710339 3.0932710339 3.0932710339 3.0932710339 3.0932710339 3.0932710339 3.0932710339 3.0932710339 3.0932710339 
3.0932710339 3.0932710339 3.0932710339 3.0932710339 3.0932710339 3.0932710339 3.0932710339 3.0932710339 3.0932710339 
3.0932710339 3.0932710339 3.0932710339 3.0932710339 3.0932710339 3.0932710339 3.0932710339 3.0932710339 3.0932710339 
3.0932710339 3.0932710339 3.0932710339 3.0932710339 3.0932710339 3.0932710339 3.0932710339 3.0932710339 3.0932710339 
3.0932710339 3.0932710339 3.0932710339 3.0932710339 3.0932710339 3.0932710339 3.0932710339 3.0932710339 3.0932710339 
3.0932710339 3.0932710339 3.0932710339 3.0932710339 3.0932710339 3.0932710339 3.0932710339 3.0932710339 3.0932710339 
3.0932710339 3.0932710339 3.0932710339 3.0932710339 3.0932710339 3.0932710339 3.0932710339 3.0932710339 3.0932710339 
3.0932710339 3.0932710339 3.0932710339 3.0932710339 3.0932710339 3.0932710339 3.0932710339 3.0932710339 3.0932710339 
3.0932710339 3.0932710339 3.0932710339 3.0932710339 3.0932710339 3.0932710339 3.0932710339 3.0932710339 3.0932710339 
3.0932710339 3.0932710339 3.0932710339 3.0932710339 3.0932710339 3.0932710339 3.0932710339 3.0932710339 3.0932710339 
3.0932710339 3.0932710339 3.0932710339 3.0932710339 3.0932710339 3.0932710339 3.0932710339 3.0932710339 3.0932710339 
3.0932710339 3.0932710339 3.0932710339 3.0932710339 3.0932710339 3.0932710339 3.0932710339 3.0932710339 3.0932710339 
3.0932710339 3.0932710339 3.0932710339 3.0932710339 3.0932710339 3.0932710339 3.0932710339 3.0932710339 3.0932710339 
3.0932710339 3.0932710339 3.0932710339 3.0932710339 3.0932710339 3.0932710339 3.0932710339 3.0932710339 3.0932710339 
3.0932710339 3.0932710339 3.0932710339 3.0932710339 3.0932710339 3.0932710339 3.0932710339 3.0932710339 3.0932710339 
3.0932710339 3.0932710339 3.0932710339 3.0932710339 3.0932710339 3.0932710339 3.0932710339 3.0932710339 3.0932710339 
3.0932710339 3.0932710339 3.0932710339 3.0932710339 3.0932710339 3.0932710339 3.0932710339 3.0932710339 3.0932710339 
3.0932710339 3.0932710339 3.0932710339 3.0932710339 3.0932710339 3.0932710339 3.0932710339 3.0932710339 3.0932710339 
3.0932710339 3.0932710339 3.0932710339 3.0932710339 3.0932710339 3.0932710339 3.0932710339 3.0932710339 3.0932710339 
3.0932710339 3.0932710339 3.0932710339 3.0932710339 3.0932710339 3.0932710339 3.0932710339 3.0932710339 3.0932710339 
3.0932710339 3.0932710339 3.0932710339 3.0932710339 3.0932710339 3.0932710339 3.0932710339 3.0932710339 3.0932710339 
3.0932710339 3.0932710339 3.0932710339 3.0932710339 3.0932710339 3.0932710339 3.0932710339 3.0932710339 3.0932710339 
3.0932710339 3.0932710339 3.0932710339 3.0932710339 3.0932710339 3.0932710339 3.0932710339 3.0932710339 3.0932710339 
3.0932710339 3.0932710339 3.0932710339 3.0932710339 3.0932710339 3.0932710339 3.0932710339 3.0932710339 3.0932710339 
3.0932710339 3.0932710339 3.0932710339 3.0932710339 3.0932710339 3.0932710339 3.0932710339 3.0932710339 3.0932710339 
3.0932710339 3.0932710339 3.0932710339 3.0932710339 3.0932710339 3.0932710339 3.0932710339 3.1078652246 3.1078652246 
3.1078652246 3.0932710339 3.0932710339 3.1078652246 3.1078652246 3.1078652246 3.1078652246 3.0932710339 3.0932710339 
3.1078652246 3.1078652246 3.1078652246 3.1078652246 3.0932710339 3.0932710339 3.1078652246 3.1078652246 3.1078652246 
3.1078652246 3.1078652246 3.1078652246 3.0932710339 3.0932710339 3.1078652246 3.1078652246 3.0932710339 3.0932710339 
3.1078652246 3.1078652246 3.1078652246 3.0932710339 3.0932710339 3.1078652246 3.1078652246 3.1078652246 3.1078652246 
3.0932710339 3.0932710339 3.1078652246 3.1078652246 3.0932710339 3.0932710339 3.0932710339 3.1078652246 3.1078652246 
3.1078652246 3.0932710339 3.0932710339 3.1078652246 3.1078652246 3.1078652246 3.0932710339 3.0932710339 3.0932710339 
3.1078652246 3.1078652246 3.0932710339 3.0932710339 3.1078652246 3.1078652246 3.1078652246 3.0932710339 3.0932710339 
3.1078652246 3.1078652246 3.1078652246 3.0932710339 3.0932710339 3.1078652246 3.1078652246 3.0932710339 3.0932710339 
3.1078652246 3.1078652246 3.0932710339 3.0932710339 3.1078652246 3.1078652246 3.0932710339 3.0932710339 3.1078652246 
3.1078652246 3.1078652246 3.0932710339 3.0932710339 3.1078652246 3.1078652246 3.1078652246 3.0932710339 3.0932710339 
3.1078652246 3.1078652246 3.0932710339 3.0932710339 3.1078652246 3.1078652246 3.0932710339 3.0932710339 3.0932710339 
3.1078652246 3.1078652246 3.1078652246 3.1078652246 3.0932710339 3.0932710339 3.1078652246 3.1078652246 3.0932710339 
3.0932710339 3.1078652246 3.1078652246 3.0932710339 3.0932710339 3.1078652246 3.1078652246 3.1078652246 3.0932710339 
3.0932710339 3.0932710339 3.1078652246 3.1078652246 3.1078652246 3.0932710339 3.0932710339 3.0932710339 3.1078652246 
3.1078652246 3.0932710339 3.0932710339 3.0932710339 3.1078652246 3.1078652246 3.0932710339 3.0932710339 3.1078652246 
3.1078652246 3.0932710339 3.0932710339 3.1078652246 3.1078652246 3.1078652246 3.0932710339 3.0932710339 3.1078652246 
3.1224594153 3.1224594153 3.1224594153 3.1078652246 3.0932710339 3.0932710339 3.1078652246 3.1224594153 3.1224594153 
3.1224594153 3.1078652246 3.0932710339 3.0932710339 3.1078652246 3.1224594153 3.1224594153 3.1224594153 3.1224594153 
3.1078652246 3.0932710339 3.0932710339 3.1078652246 3.1224594153 3.1224594153 3.1224594153 3.1224594153 3.1078652246 
3.0932710339 3.0932710339 3.1078652246 3.1224594153 3.1224594153 3.1224594153 3.1078652246 3.1078652246 3.0932710339 
3.0932710339 3.1078652246 3.1224594153 3.1224594153 3.1224594153 3.1078652246 3.0932710339 3.0932710339 3.1078652246 
3.1078652246 3.1224594153 3.1224594153 3.1224594153 3.1078652246 3.0932710339 3.0932710339 3.1078652246 3.1224594153 
3.1224594153 3.1224594153 3.1224594153 3.1078652246 3.0932710339 3.0932710339 3.1078652246 3.1224594153 3.1224594153 
3.1078652246 3.0932710339 3.0932710339 3.1078652246 3.1224594153 3.1224594153 3.1224594153 3.1078652246 3.0932710339 
3.0932710339 3.0932710339 3.1078652246 3.1224594153 3.1224594153 3.1078652246 3.1078652246 3.0932710339 3.0932710339 
3.1078652246 3.1224594153 3.1224594153 3.1224594153 3.1078652246 3.0932710339 3.0932710339 3.1078652246 3.1224594153 
3.1224594153 3.1224594153 3.1078652246 3.0932710339 3.0932710339 3.1078652246 3.1078652246 3.1224594153 3.1224594153 
3.1078652246 3.0932710339 3.0932710339 3.1078652246 3.1224594153 3.1224594153 3.1224594153 3.1078652246 3.0932710339 
3.0786768432 3.0786768432 3.0786768432 3.0786768432 3.0932710339 3.1078652246 3.1224594153 3.1224594153 3.1224594153 
3.1078652246 3.1078652246 3.0932710339 3.0786768432 3.0786768432 3.0786768432 3.0786768432 3.0932710339 3.1078652246 
3.1224594153 3.137053606 3.137053606 3.137053606 3.137053606 3.1224594153 3.1078652246 3.0932710339 3.0786768432 
3.0786768432 3.0786768432 3.0786768432 3.0786768432 3.0786768432 3.0786768432 3.0786768432 3.0786768432 3.0786768432 
3.0786768432 3.0786768432 3.0932710339 3.1078652246 3.1224594153 3.137053606 3.137053606 3.137053606 3.137053606 
3.1224594153 3.1078652246 3.0932710339 3.0786768432 3.0786768432 3.0786768432 3.0786768432 3.0786768432 3.0786768432 
3.0786768432 3.0932710339 3.1078652246 3.1224594153 3.137053606 3.137053606 3.137053606 3.137053606 3.1224594153 
3.1078652246 3.0932710339 3.0786768432 3.0786768432 3.0786768432 3.0786768432 3.0786768432 3.0786768432 3.0786768432 
3.0932710339 3.1078652246 3.1224594153 3.1224594153 3.137053606 3.137053606 3.1224594153 3.1224594153 3.1078652246 
3.0932710339 3.0786768432 3.0786768432 3.0786768432 3.0786768432 3.0786768432 3.0932710339 3.0932710339 3.1078652246 
3.1224594153 3.137053606 3.137053606 3.137053606 3.137053606 3.1224594153 3.1078652246 3.0932710339 3.0786768432 
3.0786768432 3.0786768432 3.0786768432 3.0786768432 3.0786768432 3.0786768432 3.0932710339 3.1078652246 3.1224594153 
3.137053606 3.137053606 3.1224594153 3.1078652246 3.1078652246 3.0932710339 3.0786768432 3.0786768432 3.0786768432 
3.0786768432 3.0786768432 3.0932710339 3.1078652246 3.1224594153 3.137053606 3.137053606 3.137053606 3.1224594153 
3.1078652246 3.0932710339 3.0786768432 3.0786768432 3.0786768432 3.0786768432 3.0786768432 3.0932710339 3.1078652246 
3.1224594153 3.137053606 3.137053606 3.137053606 3.1224594153 3.1224594153 3.1078652246 3.0932710339 3.0786768432 
3.0786768432 3.0786768432 3.0786768432 3.0786768432 3.0786768432 3.0786768432 3.0932710339 3.1078652246 3.1224594153 
3.1224594153 3.137053606 3.137053606 3.1224594153 3.1078652246 3.0932710339 3.0786768432 3.0786768432 3.0786768432 
3.0786768432 3.0786768432 3.0932710339 3.1078652246 3.1224594153 3.137053606 3.137053606 3.137053606 3.1224594153 
3.1078652246 3.0932710339 3.0932710339 3.0786768432 3.0786768432 3.0786768432 3.0786768432 3.0786768432 3.0786768432 
3.0932710339 3.1078652246 3.1224594153 3.137053606 3.137053606 3.1224594153 3.1078652246 3.0932710339 3.0786768432 
3.0786768432 3.0786768432 3.0786768432 3.0786768432 3.0786768432 3.0932710339 3.1078652246 3.1224594153 3.137053606 
3.1516477967 3.1516477967 3.1516477967 3.1516477967 3.137053606 3.1224594153 3.1224594153 3.1078652246 3.0932710339 
3.0786768432 3.0786768432 3.0786768432 3.0786768432 3.0932710339 3.1078652246 3.1224594153 3.137053606 3.137053606 
3.1516477967 3.1516477967 3.1516477967 3.137053606 3.137053606 3.1224594153 3.1078652246 3.1078652246 3.0932710339 
3.0786768432 3.0786768432 3.0786768432 3.0786768432 3.0786768432 3.0786768432 3.0932710339 3.1078652246 3.1078652246 
3.1224594153 3.137053606 3.1516477967 3.1516477967 3.1516477967 3.1516477967 3.137053606 3.1224594153 3.1078652246 
3.0932710339 3.0786768432 3.0786768432 3.0786768432 3.0786768432 3.0786768432 3.0932710339 3.1078652246 3.1224594153 
3.137053606 3.1516477967 3.1516477967 3.1516477967 3.137053606 3.1224594153 3.1078652246 3.0932710339 3.0786768432 
3.0786768432 3.0786768432 3.0786768432 3.0786768432 3.0932710339 3.1078652246 3.1224594153 3.1224594153 3.137053606 
3.1516477967 3.1516477967 3.1516477967 3.137053606 3.1224594153 3.1078652246 3.0932710339 3.0786768432 3.0786768432 
3.0786768432 3.0786768432 3.0786768432 3.0786768432 3.0932710339 3.1078652246 3.1224594153 3.137053606 3.137053606 
3.1516477967 3.1516477967 3.1516477967 3.137053606 3.1224594153 3.1078652246 3.0932710339 3.0786768432 3.0786768432 
3.0786768432 3.0786768432 3.0932710339 3.1078652246 3.1224594153 3.137053606 3.1516477967 3.1516477967 3.137053606 
3.137053606 3.1224594153 3.1078652246 3.0932710339 3.0932710339 3.0786768432 3.0786768432 3.0786768432 3.0786768432 
3.0932710339 3.1078652246 3.1224594153 3.137053606 3.1516477967 3.1516477967 3.1516477967 3.137053606 3.1224594153 
3.1224594153 3.1078652246 3.0932710339 3.0786768432 3.0786768432 3.0786768432 3.0786768432 3.0932710339 3.1078652246 
3.1224594153 3.137053606 3.1516477967 3.1516477967 3.1516477967 3.137053606 3.1224594153 3.1078652246 3.0932710339 
3.0786768432 3.0786768432 3.0786768432 3.0640826525 3.0640826525 3.0640826525 3.0640826525 3.0786768432 3.0786768432 
3.0932710339 3.1078652246 3.1224594153 3.1224594153 3.137053606 3.137053606 3.1516477967 3.1662419875 3.1662419875 
3.1662419875 3.1662419875 3.1662419875 3.1516477967 3.137053606 3.1224594153 3.1078652246 3.0932710339 3.0786768432 
3.0786768432 3.0786768432 3.0786768432 3.0640826525 3.0640826525 3.0640826525 3.0640826525 3.0640826525 3.0640826525 
3.0640826525 3.0786768432 3.0932710339 3.1078652246 3.1224594153 3.137053606 3.1516477967 3.1516477967 3.1662419875 
3.1662419875 3.1662419875 3.1516477967 3.137053606 3.1224594153 3.1078652246 3.0932710339 3.0786768432 3.0786768432 
3.0786768432 3.0786768432 3.0640826525 3.0640826525 3.0786768432 3.0932710339 3.1078652246 3.1224594153 3.137053606 
3.1516477967 3.1662419875 3.1662419875 3.1662419875 3.1516477967 3.137053606 3.1224594153 3.1078652246 3.0932710339 
3.0786768432 3.0786768432 3.0786768432 3.0786768432 3.0640826525 3.0640826525 3.0640826525 3.0786768432 3.0932710339 
3.1078652246 3.1224594153 3.137053606 3.1516477967 3.1516477967 3.1662419875 3.1662419875 3.1662419875 3.1662419875 
3.1516477967 3.137053606 3.1224594153 3.1078652246 3.0932710339 3.0786768432 3.0786768432 3.0786768432 3.0640826525 
3.0640826525 3.0640826525 3.0786768432 3.0932710339 3.1078652246 3.1224594153 3.137053606 3.137053606 3.1516477967 
3.1662419875 3.1662419875 3.1516477967 3.137053606 3.1224594153 3.1078652246 3.0932710339 3.0786768432 3.0786768432 
3.0786768432 3.0640826525 3.0640826525 3.0640826525 3.0786768432 3.0932710339 3.1078652246 3.1224594153 3.137053606 
3.1516477967 3.1662419875 3.1662419875 3.1662419875 3.1516477967 3.137053606 3.137053606 3.1224594153 3.1078652246 
3.0932710339 3.0786768432 3.0786768432 3.0786768432 3.0786768432 3.0786768432 3.0640826525 3.0640826525 3.0786768432 
3.0932710339 3.1078652246 3.1078652246 3.1224594153 3.137053606 3.1516477967 3.1516477967 3.1662419875 3.1662419875 
3.1516477967 3.137053606 3.1224594153 3.1078652246 3.0932710339 3.0786768432 3.0786768432 3.0786768432 3.0640826525 
3.0494884618 3.0494884618 3.0494884618 3.0640826525 3.0786768432 3.0932710339 3.1078652246 3.1224594153 3.1224594153 
3.137053606 3.1516477967 3.1662419875 3.1662419875 3.1662419875 3.1516477967 3.137053606 3.137053606 3.1224594153 
3.1078652246 3.0932710339 3.0786768432 3.0786768432 3.0786768432 3.0786768432 3.0786768432 3.0786768432 3.0786768432 
3.0640826525 3.0640826525 3.0494884618 3.0494884618 3.0494884618 3.0494884618 3.0494884618 3.0640826525 3.0640826525 
3.0786768432 3.0786768432 3.0932710339 3.1078652246 3.1224594153 3.137053606 3.137053606 3.1516477967 3.1662419875 
3.1662419875 3.1516477967 3.137053606 3.1224594153 3.1078652246 3.0932710339 3.0786768432 3.0786768432 3.0786768432 
3.0786768432 3.0786768432 3.0786768432 3.0640826525 3.0494884618 3.0494884618 3.0494884618 3.0640826525 3.0786768432 
3.0932710339 3.1078652246 3.1224594153 3.137053606 3.1516477967 3.1516477967 3.1662419875 3.1662419875 3.1662419875 
3.1516477967 3.137053606 3.1224594153 3.1224594153 3.1078652246 3.0932710339 3.0932710339 3.0786768432 3.0640826525 
3.0640826525 3.0640826525 3.0640826525 3.0640826525 3.0786768432 3.0786768432 3.0786768432 3.0640826525 3.0494884618 
3.0494884618 3.0494884618 3.0640826525 3.0786768432 3.0932710339 3.1078652246 3.1224594153 3.137053606 3.1516477967 
3.1662419875 3.1808361782 3.1808361782 3.1808361782 3.1662419875 3.1516477967 3.137053606 3.1224594153 3.1078652246 
3.1078652246 3.0932710339 3.0786768432 3.0786768432 3.0640826525 3.0640826525 3.0640826525 3.0786768432 3.0786768432 
3.0640826525 3.0494884618 3.0348942711 3.0348942711 3.0348942711 3.0494884618 3.0640826525 3.0786768432 3.0932710339 
3.1078652246 3.1224594153 3.1224594153 3.137053606 3.137053606 3.1516477967 3.1662419875 2.9619233175 2.9619233175 
2.9765175082 2.9765175082 2.991111699 2.991111699 3.0057058897 3.0057058897 3.0203000804 3.0203000804 3.0348942711 
3.0348942711 3.0494884618 3.0494884618 3.0640826525 3.0640826525 3.0786768432 3.0786768432 3.0932710339 3.0932710339 
3.1078652246 3.1078652246 3.1224594153 3.1224594153 3.137053606 3.137053606 3.1516477967 3.1516477967 3.1662419875 
3.1662419875 2.9619233175 2.9765175082 2.991111699 3.0057058897 3.0203000804 3.0348942711 3.0494884618 3.0640826525 
3.0786768432 3.0932710339 3.1078652246 3.1224594153 3.137053606 3.1516477967 3.1662419875 3.1808361782 2.9619233175 
2.9765175082 2.991111699 3.0057058897 3.0203000804 3.0348942711 3.0494884618 3.0640826525 3.0786768432 3.0932710339 
3.1078652246 3.1224594153 3.137053606 3.1516477967 3.1662419875 2.9619233175 2.9765175082 2.991111699 3.0057058897 
3.0203000804 3.0348942711 3.0494884618 3.0640826525 3.0786768432 3.0932710339 3.1078652246 3.1224594153 3.137053606 
3.1516477967 3.1662419875 2.9619233175 2.9765175082 2.991111699 3.0057058897 3.0203000804 3.0348942711 3.0494884618 
3.0640826525 3.0786768432 3.0932710339 3.1078652246 3.1224594153 3.137053606 3.1516477967 3.1662419875 3.1662419875 
3.1516477967 3.137053606 3.1224594153 3.1078652246 3.0932710339 3.0786768432 3.0640826525 3.0640826525 3.0640826525 
3.0786768432 3.0786768432 3.0786768432 3.0640826525 3.0494884618 3.0348942711 3.0348942711 3.0348942711 3.0348942711 
3.0494884618 3.0494884618 3.0640826525 3.0786768432 3.0786768432 3.0932710339 3.1078652246 3.1224594153 3.137053606 
2.9619233175 2.9619233175 2.9765175082 2.9765175082 2.991111699 2.991111699 3.0057058897 3.0057058897 3.0203000804 
3.0203000804 3.0348942711 3.0348942711 3.0494884618 3.0494884618 3.0640826525 3.0640826525 3.0786768432 3.0786768432 
3.0932710339 3.0932710339 3.1078652246 3.1078652246 3.1224594153 3.1224594153 3.137053606 3.137053606 2.9619233175 
2.9765175082 2.991111699 3.0057058897 3.0203000804 3.0348942711 3.0494884618 3.0640826525 3.0786768432 3.0932710339 
3.1078652246 3.1224594153 3.137053606 3.1516477967 2.9619233175 2.9765175082 2.991111699 3.0057058897 3.0203000804 
3.0348942711 3.0494884618 3.0640826525 3.0786768432 3.0932710339 3.1078652246 3.1224594153 3.137053606 3.1516477967 
2.9619233175 2.9765175082 2.991111699 3.0057058897 3.0203000804 3.0348942711 3.0494884618 3.0640826525 3.0786768432 
3.0932710339 3.1078652246 3.1224594153 3.137053606 3.1516477967 3.1662419875 2.9619233175 2.9765175082 2.991111699 
3.0057058897 3.0203000804 3.0348942711 3.0494884618 3.0640826525 3.0786768432 3.0932710339 3.1078652246 3.1224594153 
3.137053606 3.1516477967 3.1662419875 2.9619233175 2.9765175082 2.991111699 3.0057058897 3.0203000804 3.0348942711 
3.0494884618 3.0640826525 3.0786768432 3.0932710339 3.1078652246 3.1224594153 3.137053606 3.1516477967 3.1662419875 
2.9619233175 2.9765175082 2.991111699 3.0057058897 3.0203000804 3.0348942711 3.0494884618 3.0640826525 3.0786768432 
3.0932710339 3.1078652246 3.1224594153 3.137053606 3.1516477967 3.1662419875 2.9619233175 2.9765175082 2.991111699 
3.0057058897 3.0203000804 3.0348942711 3.0494884618 3.0640826525 3.0786768432 3.0932710339 3.1078652246 3.1224594153 