# vtk DataFile Version 4.2
vtk output
ASCII
DATASET POLYDATA
POINTS 7024 float
1510.76 -3502.17 0 1516.83 -3512.16 0 1553.84 -3508.32 0 
1565.78 -3502.16 0 1500.44 -3485.16 0 1590.84 -3489.24 0 
1598.75 -3485.16 0 1490.12 -3468.16 0 1627.84 -3470.16 0 
1631.73 -3468.16 0 1479.8 -3451.16 0 1479.84 -3451.23 0 
1664.7 -3451.16 0 1469.47 -3434.16 0 1664.84 -3451.08 0 
1697.67 -3434.16 0 1459.15 -3417.16 0 1701.84 -3432 0 
1730.65 -3417.15 0 1448.83 -3400.16 0 1738.85 -3412.93 0 
1763.62 -3400.15 0 1438.51 -3383.16 0 1442.84 -3390.29 0 
1775.85 -3393.85 0 1796.59 -3383.15 0 1428.19 -3366.16 0 
1812.85 -3374.77 0 1829.57 -3366.15 0 1417.86 -3349.16 0 
1849.85 -3355.69 0 1862.54 -3349.15 0 1407.54 -3332.16 0 
1886.85 -3336.61 0 1895.51 -3332.14 0 1397.22 -3315.16 0 
1405.84 -3329.36 0 1923.86 -3317.53 0 1928.49 -3315.14 0 
1386.9 -3298.16 0 1960.86 -3298.45 0 1961.46 -3298.14 0 
1376.57 -3281.16 0 1994.43 -3281.14 0 1366.25 -3264.16 0 
1368.84 -3268.43 0 1997.86 -3279.37 0 2027.41 -3264.14 0 
1355.93 -3247.15 0 2034.86 -3260.29 0 2060.38 -3247.14 0 
1345.61 -3230.15 0 2071.87 -3241.21 0 2093.35 -3230.13 0 
1335.28 -3213.15 0 2108.87 -3222.13 0 2126.32 -3213.13 0 
1324.96 -3196.15 0 1331.85 -3207.49 0 2145.87 -3203.05 0 
2159.3 -3196.13 0 1314.64 -3179.15 0 2182.87 -3183.97 0 
2192.27 -3179.13 0 1304.32 -3162.15 0 2219.87 -3164.9 0 
2225.24 -3162.13 0 1293.99 -3145.15 0 1294.85 -3146.56 0 
2256.88 -3145.82 0 2258.86 -3145.12 0 1283.67 -3128.15 0 
2293.88 -3138.39 0 2330.88 -3133.91 0 2339.28 -3128.12 0 
1273.35 -3111.15 0 2353.93 -3111.12 0 1263.03 -3094.15 0 
2361.78 -3094.12 0 1252.7 -3077.15 0 1257.85 -3085.63 0 
2366.62 -3077.12 0 1242.38 -3060.15 0 2367.88 -3071.57 0 
2370.49 -3060.12 0 1232.06 -3043.15 0 2374.36 -3043.11 0 
1221.74 -3026.15 0 2378.24 -3026.11 0 1211.42 -3009.14 0 
1220.86 -3024.69 0 2382.11 -3009.11 0 1201.09 -2992.14 0 
2385.98 -2992.11 0 1190.77 -2975.14 0 2389.85 -2975.11 0 
1180.45 -2958.14 0 1183.86 -2963.76 0 2393.72 -2958.11 0 
1170.13 -2941.14 0 2397.6 -2941.11 0 1159.8 -2924.14 0 
2401.47 -2924.11 0 1124.57 -2907.14 0 1146.86 -2917.79 0 
2404.89 -2909.07 0 2405.34 -2907.11 0 1079.08 -2890.14 0 
1109.86 -2901.64 0 2409.21 -2890.1 0 1033.59 -2873.14 0 
1035.86 -2873.99 0 1072.86 -2887.82 0 2413.09 -2873.1 0 
991.467 -2856.14 0 998.859 -2860.16 0 2416.96 -2856.1 0 
964.645 -2839.14 0 2420.83 -2839.1 0 953.665 -2822.14 0 
961.859 -2837.21 0 2424.7 -2822.1 0 944.672 -2805.14 0 
2428.57 -2805.1 0 935.935 -2788.14 0 2432.45 -2788.1 0 
927.442 -2771.14 0 2436.32 -2771.1 0 920.339 -2754.14 0 
924.862 -2765.88 0 2440.19 -2754.1 0 913.788 -2737.14 0 
2441.9 -2746.57 0 2444.06 -2737.09 0 907.237 -2720.14 0 
2447.94 -2720.09 0 900.686 -2703.13 0 2451.81 -2703.09 0 
894.135 -2686.13 0 2455.68 -2686.09 0 887.583 -2669.13 0 
887.867 -2669.87 0 2459.55 -2669.09 0 881.032 -2652.13 0 
2463.42 -2652.09 0 874.481 -2635.13 0 2467.3 -2635.09 0 
867.93 -2618.13 0 2471.17 -2618.09 0 861.379 -2601.13 0 
2475.04 -2601.09 0 854.828 -2584.13 0 2478.91 -2584.08 0 
848.277 -2567.13 0 850.872 -2573.86 0 2478.92 -2584.08 0 
2482.79 -2567.08 0 841.726 -2550.13 0 2486.66 -2550.08 0 
835.175 -2533.13 0 2490.53 -2533.08 0 828.624 -2516.13 0 
2494.4 -2516.08 0 822.073 -2499.12 0 2498.27 -2499.08 0 
815.522 -2482.12 0 2502.15 -2482.08 0 808.971 -2465.12 0 
813.876 -2477.85 0 2506.02 -2465.08 0 802.42 -2448.12 0 
2509.89 -2448.08 0 795.869 -2431.12 0 2513.76 -2431.07 0 
789.318 -2414.12 0 2515.93 -2421.58 0 2517.64 -2414.07 0 
782.767 -2397.12 0 2521.51 -2397.07 0 776.216 -2380.12 0 
776.881 -2381.84 0 2525.38 -2380.07 0 769.665 -2363.12 0 
2529.25 -2363.07 0 763.114 -2346.12 0 2533.12 -2346.07 0 
756.563 -2329.12 0 2537 -2329.07 0 750.012 -2312.12 0 
2540.87 -2312.07 0 743.461 -2295.11 0 2544.74 -2295.07 0 
736.91 -2278.11 0 739.886 -2285.84 0 2548.61 -2278.06 0 
730.359 -2261.11 0 2552.49 -2261.06 0 723.808 -2244.11 0 
2552.94 -2259.09 0 2556.36 -2244.06 0 717.257 -2227.11 0 
2560.23 -2227.06 0 710.706 -2210.11 0 2564.1 -2210.06 0 
704.155 -2193.11 0 2571.38 -2193.06 0 698.338 -2176.11 0 
702.89 -2189.71 0 2583.73 -2176.06 0 695.971 -2159.11 0 
2587.93 -2159.06 0 693.604 -2142.11 0 2587.12 -2142.06 0 
691.237 -2125.11 0 2586.63 -2125.05 0 688.87 -2108.11 0 
2585.67 -2108.05 0 686.503 -2091.1 0 2584.65 -2091.05 0 
684.136 -2074.1 0 2583.63 -2074.05 0 681.769 -2057.1 0 
2582.61 -2057.05 0 679.402 -2040.1 0 2581.59 -2040.05 0 
677.035 -2023.1 0 2580.57 -2023.05 0 674.668 -2006.1 0 
2579.55 -2006.05 0 672.301 -1989.1 0 2578.53 -1989.05 0 
669.934 -1972.1 0 2577.51 -1972.05 0 667.567 -1955.1 0 
2576.49 -1955.05 0 665.2 -1938.1 0 665.904 -1943.15 0 
2575.47 -1938.04 0 662.833 -1921.1 0 2574.45 -1921.04 0 
660.466 -1904.09 0 2573.43 -1904.04 0 658.099 -1887.09 0 
2572.41 -1887.04 0 655.944 -1870.09 0 2571.39 -1870.04 0 
653.959 -1853.09 0 2570.37 -1853.04 0 652.078 -1836.09 0 
2569.35 -1836.04 0 650.294 -1819.09 0 2568.33 -1819.04 0 
648.6 -1802.09 0 2567.31 -1802.04 0 646.988 -1785.09 0 
2566.29 -1785.04 0 645.445 -1768.09 0 2565.27 -1768.03 0 
644.341 -1751.09 0 2564.25 -1751.03 0 643.238 -1734.08 0 
2563.22 -1734.03 0 642.135 -1717.08 0 2562.2 -1717.03 0 
640.994 -1700.08 0 2561.18 -1700.03 0 639.444 -1683.08 0 
2560.16 -1683.03 0 637.886 -1666.08 0 2559.14 -1666.03 0 
636.328 -1649.08 0 2558.12 -1649.03 0 634.447 -1632.08 0 
2557.1 -1632.03 0 632.512 -1615.08 0 2556.08 -1615.03 0 
630.973 -1598.08 0 2555.06 -1598.03 0 629.721 -1581.08 0 
1288.68 -1581.06 0 1294.94 -1585.46 0 1331.94 -1591.01 0 
1368.94 -1591.86 0 1405.94 -1592.71 0 1442.95 -1593.56 0 
1479.95 -1594.41 0 1516.95 -1595.26 0 1553.95 -1596.12 0 
1590.95 -1596.97 0 1627.95 -1591.5 0 1638.79 -1581.05 0 
2554.04 -1581.02 0 -481.105 -1570.77 0 -494.896 -1564.11 0 
-444.104 -1567.87 0 -432.362 -1564.1 0 628.536 -1564.07 0 
628.925 -1568.32 0 1260.14 -1564.06 0 1656.45 -1564.05 0 
2553.02 -1564.02 0 -518.105 -1552.89 0 -530.072 -1547.11 0 
-407.103 -1555.99 0 -379.407 -1547.1 0 626.977 -1547.07 0 
1242.81 -1547.06 0 1257.94 -1562.92 0 1664.95 -1555.86 0 
1675.49 -1547.05 0 2553.82 -1547.02 0 -555.105 -1535.01 0 
-565.248 -1530.11 0 -370.101 -1544.11 0 -333.099 -1532.23 0 
-326.453 -1530.1 0 621.81 -1530.07 0 1226.85 -1530.06 0 
1695.37 -1530.04 0 2554.89 -1530.02 0 -592.105 -1517.13 0 
-600.425 -1513.11 0 -296.097 -1520.35 0 -273.498 -1513.1 0 
617.325 -1513.07 0 1210.38 -1513.06 0 1220.94 -1524.13 0 
1701.96 -1524.29 0 1715.47 -1513.04 0 2555.95 -1513.02 0 
-629.105 -1499.24 0 -635.601 -1496.11 0 -259.096 -1508.47 0 
-222.094 -1496.59 0 -220.544 -1496.09 0 613.719 -1496.07 0 
1194.16 -1496.06 0 1735.88 -1496.04 0 2557.01 -1496.02 0 
-666.105 -1481.36 0 -670.777 -1479.11 0 -185.092 -1484.71 0 
-167.589 -1479.09 0 610.757 -1479.07 0 1177.95 -1479.06 0 
1183.94 -1485.34 0 1738.96 -1493.48 0 1756.29 -1479.04 0 
2558.08 -1479.02 0 -703.105 -1463.48 0 -705.32 -1462.1 0 
-148.091 -1472.83 0 -114.635 -1462.09 0 608.28 -1462.07 0 
1161.73 -1462.05 0 1775.96 -1462.66 0 1776.71 -1462.04 0 
2559.14 -1462.02 0 -726.09 -1445.1 0 -111.089 -1461.3 0 
-74.0879 -1460.43 0 -50.8411 -1445.09 0 605.573 -1445.07 0 
1145.52 -1445.05 0 1146.95 -1446.55 0 1796.73 -1445.04 0 
2560.2 -1445.02 0 -739.191 -1428.1 0 -37.0853 -1433.54 0 
-33.2407 -1428.08 0 601.81 -1428.07 0 1129.3 -1428.05 0 
1809.65 -1428.04 0 2561.26 -1428.01 0 -740.104 -1426.82 0 
-751.279 -1411.1 0 -21.2634 -1411.08 0 598.048 -1411.07 0 
1113.09 -1411.05 0 1812.97 -1422.45 0 1817.28 -1411.03 0 
2561.52 -1411.01 0 -763.366 -1394.1 0 -9.67059 -1394.08 0 
594.285 -1394.07 0 1095.77 -1394.05 0 1109.95 -1407.76 0 
1823.71 -1394.03 0 2561.31 -1394.01 0 -775.454 -1377.1 0 
-0.0812315 -1381.02 0 2.69115 -1377.08 0 590.377 -1377.06 0 
591.935 -1383.45 0 1075.23 -1377.05 0 1830.13 -1377.03 0 
2561.14 -1377.01 0 -777.102 -1374.78 0 -787.541 -1360.1 0 
14.6685 -1360.08 0 586.677 -1360.06 0 1051.54 -1360.05 0 
1072.95 -1375.34 0 1836.56 -1360.03 0 2558.04 -1360.01 0 
-799.628 -1343.1 0 26.6458 -1343.08 0 582.997 -1343.06 0 
1027.73 -1343.05 0 1035.95 -1348.92 0 1842.99 -1343.03 0 
2554.73 -1343.01 0 -811.716 -1326.1 0 36.9229 -1328.49 0 
38.6231 -1326.08 0 579.234 -1326.06 0 1003.93 -1326.05 0 
1849.42 -1326.03 0 2552.99 -1334.06 0 2551.42 -1326.01 0 
-814.1 -1322.75 0 -823.803 -1309.1 0 50.6004 -1309.08 0 
573.938 -1309.06 0 987.839 -1309.05 0 998.949 -1322.5 0 
1849.97 -1324.56 0 1855.84 -1309.03 0 2548.11 -1309.01 0 
-835.891 -1292.1 0 62.5778 -1292.07 0 564.673 -1292.06 0 
973.732 -1292.05 0 1862.27 -1292.03 0 2544.81 -1292.01 0 
-847.978 -1275.1 0 73.9269 -1275.96 0 74.5551 -1275.07 0 
558.889 -1275.06 0 960.024 -1275.05 0 961.951 -1277.92 0 
1868.7 -1275.02 0 2541.5 -1275.01 0 -851.098 -1270.71 0 
-860.065 -1258.1 0 86.5323 -1258.07 0 554.395 -1258.06 0 
554.941 -1260.42 0 948.6 -1258.05 0 1875.12 -1258.02 0 
2538.19 -1258.01 0 -872.153 -1241.1 0 98.5097 -1241.07 0 
550.472 -1241.06 0 937.176 -1241.05 0 1885 -1241.02 0 
2534.88 -1241 0 -884.24 -1224.1 0 110.487 -1224.07 0 
546.557 -1224.06 0 925.752 -1224.05 0 1886.98 -1237.78 0 
1895.36 -1224.02 0 2531.57 -1224 0 -888.096 -1218.67 0 
-896.327 -1207.1 0 110.931 -1223.44 0 121.064 -1207.07 0 
542.651 -1207.06 0 914.328 -1207.05 0 924.953 -1222.86 0 
1905.72 -1207.02 0 2528.26 -1207 0 -908.415 -1190.09 0 
127.969 -1190.07 0 538.753 -1190.06 0 903.681 -1190.05 0 
1916.08 -1190.02 0 2524.95 -1190 0 -920.502 -1173.09 0 
132.816 -1173.07 0 534.863 -1173.05 0 893.995 -1173.04 0 
1923.98 -1177.06 0 1925.98 -1173.02 0 2521.64 -1173 0 
-925.094 -1166.64 0 -932.59 -1156.09 0 135.644 -1156.06 0 
530.981 -1156.05 0 885.073 -1156.04 0 887.956 -1161.68 0 
1933.25 -1156.02 0 2518.34 -1156 0 -945.312 -1139.09 0 
137.38 -1139.06 0 527.108 -1139.05 0 876.38 -1139.04 0 
1939.02 -1139.01 0 2516.7 -1139 0 -962.092 -1122.79 0 
-962.731 -1122.09 0 139.115 -1122.06 0 523.243 -1122.05 0 
867.687 -1122.04 0 1944.79 -1122.01 0 2516.13 -1122 0 
-982.27 -1105.09 0 140.85 -1105.06 0 519.386 -1105.05 0 
858.994 -1105.04 0 1950.55 -1105.01 0 2516 -1117.97 0 
2515.59 -1105 0 -999.091 -1090.45 0 -1001.19 -1088.09 0 
[...]
POINT_DATA 7024
SCALARS Pressure double
LOOKUP_TABLE default
3.0932710339 3.0932710339 3.0932710339 3.0932710339 3.0932710339 3.0932710339 3.0932710339 3.0932710339 3.0932710339 
3.0932710339 3.0932710339 3.0932710339 3.0932710339 3.0932710339 3.0932710339 3.0932710339 3.0932710339 3.0932710339 
3.0932710339 3.0932710339 3.0932710339 3.0932710339 3.0932710339 3.0932710339 3.0932710339 3.0932710339 3.0932710339 
3.0932710339 3.0932710339 3.0932710339 3.0932710339 3.0932710339 3.0932710339 3.0932710339 3.0932710339 3.0932710339 
3.0932710339 3.0932710339 3.0932710339 3.0932710339 3.0932710339 3.0932710339 3.0932710339 3.0932710339 3.0932710339 
3.0932710339 3.0932710339 3.0932710339 3.0932710339 3.0932710339 3.0932710339 3.0932710339 3.0932710339 3.0932710339 
3.0932710339 3.0932710339 3.0932710339 3.0932710339 3.0932710339 3.0932710339 3.0932710339 3.0932710339 3.0932710339 
3.0932710339 3.0932710339 3.0932710339 3.0932710339 3.0932710339 3.0932710339 3.0932710339 3.0932710339 3.0932710339 
3.0932710339 3.0932710339 3.0932710339 3.0932710339 3.0932710339 3.0932710339 3.0932710339 3.0932710339 3.0932710339 
3.0932710339 3.0932710339 3.0932710339 3.0932710339 3.0932710339 3.0932710339 3.0932710339 3.0932710339 3.0932710339 
3.0932710339 3.0932710339 3.0932710339 3.0932710339 3.0932710339 3.0932710339 3.0932710339 3.0932710339 3.0932710339 
3.0932710339 3.0932710339 3.0932710339 3.0932710339 3.0932710339 3.0932710339 3.0932710339 3.0932710339 3.0932710339 
3.0932710339 3.0932710339 3.0932710339 3.0932710339 3.0932710339 3.0932710339 3.0932710339 3.0932710339 3.0932710339 
3.0932710339 3.0932710339 3.0932710339 3.0932710339 3.0932710339 3.0932710339 3.0932710339 3.0932710339 3.0932710339 
3.0932710339 3.0932710339 3.0932710339 3.0932710339 3.0932710339 3.0932710339 3.0932710339 3.0932710339 3.0932710339 
3.0932710339 3.0932710339 3.0932710339 3.0932710339 3.0932710339 3.0932710339 3.0932710339 3.0932710339 3.0932710339 
3.0932710339 3.0932710339 3.0932710339 3.0932710339 3.0932710339 3.0932710339 3.0932710339 3.0932710339 3.0932710339 
3.0932710339 3.0932710339 3.0932710339 3.0932710339 3.0932710339 3.0932710339 3.0932710339 3.0932710339 3.0932710339 
3.0932710339 3.0932710339 3.0932710339 3.0932710339 3.0932710339 3.0932710339 3.0932710339 3.0932710339 3.0932710339 
3.0932710339 3.0932710339 3.0932710339 3.0932710339 3.0932710339 3.0932710339 3.0932710339 3.0932710339 3.0932710339 
3.0932710339 3.0932710339 3.0932710339 3.0932710339 3.0932710339 3.0932710339 3.0932710339 3.0932710339 3.0932710339 
3.0932710339 3.0932710339 3.0932710339 3.0932710339 3.0932710339 3.0932710339 3.0932710339 3.0932710339 3.0932710339 
3.0932710339 3.0932710339 3.0932710339 3.0932710339 3.0932710339 3.0932710339 3.0932710339 3.0932710339 3.0932710339 
3.0932710339 3.0932710339 3.0932710339 3.0932710339 3.0932710339 3.0932710339 3.0932710339 3.0932710339 3.0932710339 
3.0932710339 3.0932710339 3.0932710339 3.0932710339 3.0932710339 3.0932710339 3.0932710339 3.0932710339 3.0932710339 
3.0932710339 3.0932710339 3.0932710339 3.0932710339 3.0932710339 3.0932710339 3.0932710339 3.0932710339 3.0932710339 
3.0932710339 3.0932710339 3.0932710339 3.0932710339 3.0932710339 3.0932710339 3.0932710339 3.0932710339 3.0932710339 
3.0932710339 3.0932710339 3.0932710339 3.0932710339 3.0932710339 3.0932710339 3.0932710339 3.0932710339 3.0932710339 
3.0932710339 3.0932710339 3.0932710339 3.0932710339 3.0932710339 3.0932710339 3.0932710339 3.0932710339 3.0932710339 
3.0932710339 3.0932710339 3.0932710339 3.0932710339 3.0932710339 3.0932710339 3.0932710339 3.0932710339 3.0932710339 
3.0932710339 3.0932710339 3.0932710339 3.0932710339 3.0932710339 3.0932710339 3.0932710339 3.0932710339 3.0932710339 
3.1078652246 3.1078652246 3.1078652246 3.1078652246 3.1078652246 3.1078652246 3.1078652246 3.1078652246 3.1078652246 
3.1078652246 3.1078652246 3.1078652246 3.0932710339 3.0786768432 3.0786768432 3.0786768432 3.0786768432 3.0932710339 
3.0932710339 3.1078652246 3.1078652246 3.0932710339 3.0786768432 3.0786768432 3.0786768432 3.0786768432 3.0932710339 
3.1078652246 3.1078652246 3.1078652246 3.1078652246 3.0932710339 3.0786768432 3.0786768432 3.0786768432 3.0786768432 
3.0786768432 3.0932710339 3.1078652246 3.1078652246 3.0932710339 3.0786768432 3.0786768432 3.0786768432 3.0786768432 
3.0932710339 3.1078652246 3.1078652246 3.1078652246 3.1078652246 3.0932710339 3.0786768432 3.0786768432 3.0786768432 
3.0786768432 3.0786768432 3.0932710339 3.1078652246 3.1078652246 3.0932710339 3.0786768432 3.0786768432 3.0786768432 
3.0786768432 3.0932710339 3.1078652246 3.1078652246 3.1078652246 3.1078652246 3.0932710339 3.0786768432 3.0786768432 
3.0786768432 3.0786768432 3.0932710339 3.1078652246 3.1078652246 3.1078652246 3.0932710339 3.0786768432 3.0786768432 
3.0786768432 3.0786768432 3.0932710339 3.1078652246 3.1078652246 3.1078652246 3.0932710339 3.0786768432 3.0786768432 
3.0786768432 3.0932710339 3.1078652246 3.1078652246 3.0932710339 3.0786768432 3.0786768432 3.0786768432 3.0932710339 
3.1078652246 3.1078652246 3.1078652246 3.0932710339 3.0786768432 3.0786768432 3.0932710339 3.1078652246 3.1078652246 
3.1078652246 3.0932710339 3.0786768432 3.0786768432 3.0786768432 3.0932710339 3.0932710339 3.1078652246 3.1078652246 
3.0932710339 3.0786768432 3.0786768432 3.0786768432 3.0932710339 3.1078652246 3.1078652246 3.1078652246 3.0932710339 
3.0786768432 3.0786768432 3.0932710339 3.1078652246 3.1078652246 3.1078652246 3.0932710339 3.0786768432 3.0786768432 
3.0786768432 3.0932710339 3.1078652246 3.1078652246 3.0932710339 3.0932710339 3.0786768432 3.0786768432 3.0786768432 
3.0932710339 3.1078652246 3.1078652246 3.1078652246 3.1078652246 3.0932710339 3.0786768432 3.0786768432 3.0932710339 
3.1078652246 3.1078652246 3.0932710339 3.0786768432 3.0786768432 3.0786768432 3.0932710339 3.1078652246 3.1078652246 
3.1078652246 3.0932710339 3.0786768432 3.0786768432 3.0786768432 3.0932710339 3.0932710339 3.1078652246 3.1078652246 
3.0932710339 3.0786768432 3.0786768432 3.0932710339 3.1078652246 3.1078652246 3.0932710339 3.0786768432 3.0786768432 
3.0932710339 3.1078652246 3.1078652246 3.1078652246 3.0932710339 3.0786768432 3.0786768432 3.0786768432 3.0786768432 
3.0932710339 3.1078652246 3.1078652246 3.1078652246 3.0932710339 3.0786768432 3.0786768432 3.0932710339 3.1078652246 
3.1078652246 3.0932710339 3.0786768432 3.0786768432 3.0932710339 3.1078652246 3.1078652246 3.1078652246 3.0932710339 
3.0786768432 3.0786768432 3.0786768432 3.0932710339 3.1078652246 3.1078652246 3.1078652246 3.0932710339 3.0786768432 
3.0786768432 3.0932710339 3.1078652246 3.1078652246 3.0932710339 3.0786768432 3.0786768432 3.0786768432 3.0932710339 
3.1078652246 3.1078652246 3.0932710339 3.0786768432 3.0786768432 3.0932710339 3.1078652246 3.1078652246 3.0932710339 
3.0932710339 3.0786768432 3.0786768432 3.0786768432 3.0932710339 3.0932710339 3.1078652246 3.1078652246 3.1078652246 
3.0932710339 3.0786768432 3.0786768432 3.0932710339 3.1078652246 3.1078652246 3.1078652246 3.0932710339 3.0786768432 
3.0786768432 3.0786768432 3.0932710339 3.1078652246 3.1078652246 3.0932710339 3.0786768432 3.0786768432 3.0932710339 
3.1078652246 3.1078652246 3.0932710339 3.0786768432 3.0786768432 3.0932710339 3.1078652246 3.1078652246 3.1078652246 
3.0932710339 3.0786768432 3.0786768432 3.0932710339 3.1078652246 3.1078652246 3.0932710339 3.0786768432 3.0786768432 
3.0932710339 3.1078652246 3.1078652246 3.0932710339 3.0786768432 3.0786768432 3.0786768432 3.0932710339 3.1078652246 
3.1078652246 3.1078652246 3.0932710339 3.0786768432 3.0786768432 3.0932710339 3.1078652246 3.1078652246 3.1078652246 
3.0932710339 3.0786768432 3.0786768432 3.0932710339 3.1078652246 3.1224594153 3.1224594153 3.1224594153 3.1078652246 
3.0932710339 3.0786768432 3.0786768432 3.0932710339 3.1078652246 3.1078652246 3.1224594153 3.1224594153 3.1224594153 
3.1224594153 3.1224594153 3.1224594153 3.1078652246 3.0932710339 3.0786768432 3.0786768432 3.0786768432 3.0932710339 
3.0932710339 3.1078652246 3.1224594153 3.1224594153 3.1224594153 3.1224594153 3.1224594153 3.1078652246 3.0932710339 
3.0786768432 3.0786768432 3.0932710339 3.1078652246 3.1224594153 3.1224594153 3.1224594153 3.1224594153 3.1078652246 
3.0932710339 3.0786768432 3.0786768432 3.0932710339 3.1078652246 3.1224594153 3.1224594153 3.1224594153 3.1224594153 
3.1224594153 3.1078652246 3.0932710339 3.0786768432 3.0786768432 3.0932710339 3.1078652246 3.1078652246 3.1224594153 
3.1224594153 3.1078652246 3.0932710339 3.0786768432 3.0786768432 3.0932710339 3.1078652246 3.1224594153 3.1224594153 
3.1224594153 3.1224594153 3.1078652246 3.1078652246 3.0932710339 3.0786768432 3.0786768432 3.0932710339 3.1078652246 
3.1224594153 3.1224594153 3.1078652246 3.0932710339 3.0786768432 3.0786768432 3.0932710339 3.0932710339 3.1078652246 
3.1224594153 3.1224594153 3.1224594153 3.1078652246 3.0932710339 3.0786768432 3.0786768432 3.0932710339 3.1078652246 
3.1078652246 3.1224594153 3.1224594153 3.1224594153 3.1078652246 3.0932710339 3.0786768432 3.0786768432 3.0932710339 
3.1078652246 3.1224594153 3.1224594153 3.1224594153 3.1078652246 3.0932710339 3.0786768432 3.0786768432 3.0786768432 
3.0786768432 3.0786768432 3.0786768432 3.0786768432 3.0932710339 3.1078652246 3.1224594153 3.1224594153 3.1224594153 
3.1078652246 3.0932710339 3.0786768432 3.0786768432 3.0786768432 3.0786768432 3.0786768432 3.0640826525 3.0640826525 
3.0640826525 3.0640826525 3.0640826525 3.0640826525 3.0640826525 3.0640826525 3.0786768432 3.0932710339 3.1078652246 
3.1224594153 3.1224594153 3.1078652246 3.0932710339 3.0786768432 3.0786768432 3.0786768432 3.0786768432 3.0786768432 
3.0640826525 3.0640826525 3.0640826525 3.0640826525 3.0786768432 3.0932710339 3.1078652246 3.1078652246 3.1224594153 
3.1224594153 3.1224594153 3.1224594153 3.1078652246 3.0932710339 3.0786768432 3.0786768432 3.0786768432 3.0786768432 
3.0786768432 3.0640826525 3.0640826525 3.0786768432 3.0932710339 3.1078652246 3.1224594153 3.1224594153 3.1078652246 
3.1078652246 3.0932710339 3.0786768432 3.0786768432 3.0786768432 3.0786768432 3.0786768432 3.0786768432 3.0640826525 
3.0640826525 3.0640826525 3.0640826525 3.0786768432 3.0932710339 3.1078652246 3.1224594153 3.1224594153 3.1224594153 
3.1078652246 3.0932710339 3.0786768432 3.0786768432 3.0786768432 3.0786768432 3.0786768432 3.0640826525 3.0640826525 
3.0786768432 3.0932710339 3.1078652246 3.1224594153 3.1224594153 3.1078652246 3.0932710339 3.0786768432 3.0786768432 
3.0786768432 3.0786768432 3.0640826525 3.0640826525 3.0640826525 3.0640826525 3.0786768432 3.0932710339 3.1078652246 
3.1224594153 3.1224594153 3.1224594153 3.1224594153 3.1078652246 3.0932710339 3.0786768432 3.0786768432 3.0786768432 
3.0786768432 3.0786768432 3.0640826525 3.0640826525 3.0786768432 3.0932710339 3.1078652246 3.1078652246 3.1224594153 
3.1224594153 3.1078652246 3.0932710339 3.0786768432 3.0786768432 3.0786768432 3.0786768432 3.0786768432 3.0640826525 
3.0640826525 3.0640826525 3.0640826525 3.0786768432 3.0932710339 3.0932710339 3.1078652246 3.1224594153 3.1224594153 
3.1078652246 3.0932710339 3.0786768432 3.0786768432 3.0786768432 3.0640826525 3.0640826525 3.0786768432 3.0932710339 
3.1078652246 3.1224594153 3.1224594153 3.1224594153 3.1078652246 3.0932710339 3.0932710339 3.0786768432 3.0786768432 
3.0786768432 3.0786768432 3.0640826525 3.0640826525 3.0640826525 3.0786768432 3.0932710339 3.1078652246 3.1224594153 
3.1224594153 3.1224594153 3.1078652246 3.0932710339 3.0786768432 3.0786768432 3.0786768432 3.0640826525 3.0640826525 
3.0640826525 3.0786768432 3.0932710339 3.1078652246 3.1224594153 3.137053606 3.137053606 3.137053606 3.137053606 
3.137053606 3.1224594153 3.1078652246 3.0932710339 3.0786768432 3.0786768432 3.0786768432 3.0786768432 3.0640826525 
3.0640826525 3.0786768432 3.0932710339 3.1078652246 3.1078652246 3.1224594153 3.1224594153 3.137053606 3.137053606 
3.137053606 3.137053606 3.1224594153 3.1078652246 3.0932710339 3.0786768432 3.0786768432 3.0786768432 3.0640826525 
3.0640826525 3.0786768432 3.0932710339 3.1078652246 3.1224594153 3.137053606 3.137053606 3.137053606 3.137053606 
3.1224594153 3.1078652246 3.1078652246 3.0932710339 3.0786768432 3.0786768432 3.0786768432 3.0640826525 3.0640826525 
3.0786768432 3.0932710339 3.1078652246 3.1224594153 3.1224594153 3.137053606 3.137053606 3.1224594153 3.1078652246 
3.0932710339 3.0786768432 3.0786768432 3.0786768432 3.0640826525 3.0640826525 3.0786768432 3.0932710339 3.1078652246 
3.1078652246 3.1224594153 3.137053606 3.137053606 3.137053606 3.137053606 3.1224594153 3.1224594153 3.1078652246 
3.0932710339 3.0786768432 3.0786768432 3.0786768432 3.0786768432 3.0786768432 3.0640826525 3.0640826525 3.0640826525 
3.0640826525 3.0786768432 3.0932710339 3.1078652246 3.1224594153 3.137053606 3.137053606 3.137053606 3.1224594153 
3.1078652246 3.0932710339 3.0786768432 3.0786768432 3.0786768432 3.0640826525 3.0640826525 3.0786768432 3.0932710339 
3.0932710339 3.1078652246 3.1224594153 3.1224594153 3.137053606 3.137053606 3.137053606 3.1224594153 3.1078652246 
3.0932710339 3.0786768432 3.0786768432 3.0786768432 3.0786768432 3.0640826525 3.0640826525 3.0786768432 3.0932710339 
3.1078652246 3.1224594153 3.137053606 3.137053606 3.137053606 3.1224594153 3.1078652246 3.0932710339 3.0786768432 
3.0786768432 3.0786768432 3.0640826525 3.0494884618 3.0494884618 3.0494884618 3.0494884618 3.0494884618 3.0640826525 
3.0786768432 3.0932710339 3.1078652246 3.1078652246 3.1224594153 3.1224594153 3.137053606 3.137053606 3.137053606 
3.137053606 3.1224594153 3.1078652246 3.0932710339 3.0786768432 3.0786768432 3.0786768432 3.0640826525 3.0494884618 
3.0494884618 3.0494884618 3.0494884618 3.0640826525 3.0786768432 3.0932710339 3.1078652246 3.1224594153 3.137053606 
3.137053606 3.1224594153 3.1078652246 3.0932710339 3.0786768432 3.0786768432 3.0786768432 3.0786768432 3.0640826525 
3.0640826525 3.0494884618 3.0494884618 3.0494884618 3.0640826525 3.0786768432 3.0932710339 3.1078652246 3.1224594153 
3.137053606 3.137053606 3.137053606 3.1224594153 3.1078652246 3.0932710339 3.0786768432 3.0786768432 3.0786768432 
3.0786768432 3.0640826525 3.0494884618 3.0494884618 3.0494884618 3.0640826525 3.0786768432 3.0932710339 3.0932710339 
3.1078652246 3.1224594153 3.1224594153 3.137053606 3.137053606 3.1224594153 3.1078652246 3.0932710339 3.0786768432 
3.0786768432 3.0786768432 3.0786768432 3.0640826525 3.0494884618 3.0494884618 3.0494884618 3.0640826525 3.0786768432 
3.0932710339 3.1078652246 3.1078652246 3.1224594153 3.137053606 3.137053606 3.137053606 3.1224594153 3.1078652246 
3.0932710339 3.0932710339 3.0786768432 3.0786768432 3.0786768432 3.0786768432 3.0640826525 3.0494884618 3.0494884618 
3.0494884618 3.0640826525 3.0786768432 3.0932710339 3.1078652246 3.1224594153 3.137053606 3.137053606 3.137053606 
3.1224594153 3.1078652246 3.0932710339 3.0786768432 3.0786768432 3.0786768432 3.0640826525 3.0494884618 3.0494884618 
3.0494884618 3.0640826525 3.0786768432 3.0786768432 3.0932710339 3.1078652246 3.1224594153 3.137053606 3.137053606 
3.1224594153 3.1078652246 3.0932710339 3.0786768432 3.0786768432 3.0786768432 3.0640826525 3.0494884618 3.0494884618 
3.0640826525 3.0786768432 3.0932710339 3.1078652246 3.1078652246 3.1224594153 3.1224594153 3.137053606 3.137053606 
3.137053606 3.1224594153 3.1078652246 3.0932710339 3.0786768432 3.0786768432 3.0786768432 3.0786768432 3.0640826525 
3.0494884618 3.0494884618 3.0640826525 3.0786768432 3.0932710339 3.0932710339 3.1078652246 3.1224594153 3.137053606 
3.137053606 3.1224594153 3.1078652246 3.0932710339 3.0786768432 3.0786768432 3.0786768432 3.0786768432 3.0786768432 
3.0640826525 3.0494884618 3.0494884618 3.0494884618 3.0640826525 3.0786768432 3.0932710339 3.1078652246 3.1224594153 
3.137053606 3.137053606 3.1224594153 3.1078652246 3.0932710339 3.0786768432 3.0786768432 3.0786768432 3.0786768432 
3.0640826525 3.0640826525 3.0494884618 3.0348942711 3.0348942711 3.0348942711 3.0348942711 3.0494884618 3.0640826525 
3.0786768432 3.0932710339 3.1078652246 3.1224594153 3.137053606 3.137053606 3.137053606 3.1224594153 3.1078652246 
3.0932710339 3.0786768432 3.0786768432 3.0786768432 3.0786768432 3.0640826525 3.0494884618 3.0348942711 3.0348942711 
3.0348942711 3.0348942711 3.0494884618 3.0494884618 3.0640826525 3.0786768432 3.0932710339 3.1078652246 3.1224594153 
3.1224594153 3.137053606 3.137053606 3.1224594153 3.1078652246 3.0932710339 3.0786768432 3.0640826525 3.0640826525 
3.0640826525 3.0640826525 3.0640826525 3.0640826525 3.0786768432 3.0786768432 3.0786768432 3.0640826525 3.0494884618 
3.0348942711 3.0348942711 3.0348942711 3.0348942711 3.0494884618 3.0640826525 3.0786768432 3.0932710339 3.1078652246 
3.1078652246 3.1224594153 3.137053606 3.137053606 3.1224594153 3.1078652246 3.1078652246 3.0932710339 3.0786768432 
3.0640826525 3.0640826525 3.0640826525 3.0786768432 3.0786768432 3.0786768432 3.0786768432 3.0640826525 3.0494884618 
3.0348942711 3.0348942711 3.0494884618 3.0640826525 3.0786768432 3.0932710339 3.1078652246 3.1224594153 3.137053606 
3.137053606 3.1224594153 3.1078652246 3.0932710339 3.0786768432 3.0786768432 3.0640826525 3.0640826525 3.0640826525 
3.0786768432 3.0786768432 3.0786768432 3.0786768432 3.0640826525 3.0494884618 3.0348942711 3.0348942711 3.0494884618 
3.0640826525 3.0786768432 3.0932710339 3.1078652246 3.1224594153 3.1224594153 3.137053606 3.137053606 3.137053606 
3.1224594153 3.1078652246 3.0932710339 3.0786768432 3.0640826525 3.0640826525 3.0640826525 3.0640826525 3.0786768432 
3.0786768432 3.0786768432 3.0786768432 3.0786768432 3.0640826525 3.0494884618 3.0494884618 3.0348942711 3.0348942711 
3.0203000804 3.0203000804 3.0203000804 3.0203000804 3.0348942711 3.0348942711 3.0494884618 3.0640826525 3.0786768432 
3.0786768432 3.0932710339 3.1078652246 3.1224594153 3.137053606 2.9619233175 2.9619233175 2.9765175082 2.9765175082 
2.991111699 2.991111699 3.0057058897 3.0057058897 3.0203000804 3.0203000804 3.0348942711 3.0348942711 3.0494884618 
3.0494884618 3.0640826525 3.0640826525 3.0786768432 3.0786768432 3.0932710339 3.0932710339 3.1078652246 3.1078652246 
3.1224594153 3.1224594153 3.137053606 3.137053606 2.9619233175 2.9765175082 2.991111699 3.0057058897 3.0203000804 
3.0348942711 3.0494884618 3.0640826525 3.0786768432 3.0932710339 3.1078652246 3.1224594153 3.137053606 2.9619233175 
2.9765175082 2.991111699 3.0057058897 3.0203000804 3.0348942711 3.0494884618 3.0640826525 3.0786768432 3.0932710339 
3.1078652246 3.1224594153 3.137053606 2.9619233175 2.9765175082 2.991111699 3.0057058897 3.0203000804 3.0348942711 
3.0494884618 3.0640826525 3.0786768432 3.0932710339 3.1078652246 3.1224594153 3.137053606 2.9619233175 2.9765175082 
2.991111699 3.0057058897 3.0203000804 3.0348942711 3.0494884618 3.0640826525 3.0786768432 3.0932710339 3.1078652246 
3.1224594153 3.137053606 2.9619233175 2.9765175082 2.991111699 3.0057058897 3.0203000804 3.0348942711 3.0494884618 
3.0640826525 3.0786768432 3.0932710339 3.1078652246 3.1224594153 3.137053606 2.9619233175 2.9765175082 2.991111699 
3.0057058897 3.0203000804 3.0348942711 3.0494884618 3.0640826525 3.0786768432 3.0932710339 3.1078652246 3.1224594153 
3.137053606 2.9619233175 2.9765175082 2.991111699 3.0057058897 3.0203000804 3.0348942711 3.0494884618 3.0640826525 
3.0786768432 3.0932710339 3.1078652246 3.1224594153 3.137053606 2.9619233175 2.9765175082 2.991111699 3.0057058897 
3.0203000804 3.0348942711 3.0494884618 3.0640826525 3.0786768432 3.0932710339 3.1078652246 3.1224594153 3.137053606 
2.9619233175 2.9765175082 2.991111699 3.0057058897 3.0203000804 3.0348942711 3.0494884618 3.0640826525 3.0786768432 
3.0932710339 3.1078652246 3.1224594153 3.137053606 3.137053606 3.1224594153 3.1078652246 3.0932710339 3.0786768432 
3.0640826525 3.0640826525 3.0786768432 3.0786768432 3.0786768432 3.0640826525 3.0494884618 3.0348942711 3.0203000804 
3.0203000804 3.0203000804 3.0348942711 3.0494884618 3.0640826525 3.0786768432 3.0932710339 3.1078652246 2.9619233175 