# vtk DataFile Version 4.2
vtk output
ASCII
DATASET UNSTRUCTURED_GRID
POINTS 1740 double
2144.07 -94.44003 0 2911 0 0 16.54298 -37.82236 0 
5.09149 -21.30132 0 1.27433 -10.75385 0 0 0 0 
2.54575 15.14293 0 6.36291 23.76126 0 14.00014 34.89063 0 
30.50239 50.70793 0 33.39435 -52.93479 0 2050.91 -103.7862 0 
60.1465 -69.72165 0 88.83633 -83.2817 0 118.7656 -94.71113 0 
153.4168 -105.7022 0 199.5806 -117.771 0 261.4466 -130.7139 0 
345.846 -144.1892 0 460.3522 -157.0592 0 608.4185 -167.1903 0 
783.2313 -172.4016 0 941.0559 -172.4533 0 1063.409 -170.1096 0 
1164.153 -166.8746 0 1263.449 -162.682 0 1375.468 -156.8941 0 
1513.293 -148.414 0 1665.281 -137.5317 0 1791.864 -127.3721 0 
2195.451 -89.09491 0 2273.924 -80.67077 0 2383.731 -68.3513 0 
2517.64 -52.47337 0 2649.227 -35.9232 0 2740.773 -23.82991 0 
2804.387 -15.13419 0 2848.802 -8.916218 0 2881.944 -4.196067 0 
56.61447 67.79801 0 84.09687 81.25172 0 112.4783 92.48395 0 
142.1748 102.3504 0 174.8563 111.6168 0 213.124 120.8806 0 
260.3759 130.5151 0 324.6539 141.1779 0 418.1422 152.9178 0 
535.6656 162.9871 0 690.9154 170.4255 0 902.6513 172.7852 0 
1100.32 169.0517 0 1270.99 162.3262 0 1462.794 151.6837 0 
1631.287 140.0952 0 1747.993 131 0 1922.788 115.9027 0 
2069.56 101.951 0 2128.804 96.0021 0 2297.147 78.11721 0 
2414.379 64.80104 0 2554.023 47.99319 0 2673.693 32.73885 0 
2757.97 21.50315 0 2814.297 13.7575 0 2852.02 8.460961 0 
2882.272 4.148909 0 1791.052 127.4402 0 1366.894 157.3738 0 
1444.38 -152.8302 0 1547.039 146.1296 0 1589.287 -143.1614 0 
1878.731 119.8675 0 1997.072 108.9828 0 1185.654 166.0472 0 
1882.536 -119.5292 0 1971.323 -111.4145 0 1684.777 136.0292 0 
2099.317 -98.9855 0 2234.809 84.9091 0 2181.695 90.53914 0 
1728.573 -132.5703 0 1718.815 133.3509 0 1834.825 123.7132 0 
1960.305 112.4444 0 2033.69 105.4648 0 2099.184 98.99892 0 
2214.291 -74.622050024 396.8421 2955.512 15.975710953 396.8421 158.0786 -29.865735993 396.8421 
147.0109 -14.038527492 396.8421 143.3217 -3.913542029 396.8421 142.09 6.4247920009 396.8421 
144.5505 21.007766491 396.8421 148.2398 29.321060574 396.8421 155.621 40.072133975 396.8421 
171.5701 55.384209802 396.8421 174.3652 -44.30579849 396.8421 2124.254 -83.775764209 396.8421 
200.2206 -60.297915629 396.8421 227.9488 -73.173436259 396.8421 256.8748 -83.991260361 396.8421 
290.3647 -94.358772331 396.8421 334.981 -105.6939025 396.8421 394.7733 -117.77596149 396.8421 
476.3434 -130.23649688 396.8421 587.0114 -141.9403615 396.8421 730.1145 -150.82590247 396.8421 
899.0676 -154.85500295 396.8421 1051.602 -154.05538368 396.8421 1169.853 -151.17350965 396.8421 
1267.221 -147.568323 396.8421 1363.188 -143.07189519 396.8421 1471.452 -137.01093377 396.8421 
1604.657 -128.29386608 396.8421 1751.55 -117.27472993 396.8421 1873.891 -107.10095563 396.8421 
2263.949 -69.406290542 396.8421 2339.792 -61.212336263 396.8421 2445.918 -49.283131393 396.8421 
2575.338 -33.993184083 396.8421 2702.515 -18.146926945 396.8421 2790.992 -6.6208159555 396.8421 
2852.473 1.6418084183 396.8421 2895.4 7.5378773276 396.8421 2927.431 12.007181939 396.8421 
196.807 71.976178539 396.8421 223.3682 85.077823041 396.8421 250.7983 96.047830969 396.8421 
279.4994 105.71181184 396.8421 311.0855 114.81633831 396.8421 348.0705 123.9513765 396.8421 
393.7383 133.49631785 396.8421 455.8617 144.13126308 396.8421 546.2162 155.97527448 396.8421 
659.8003 166.35366199 396.8421 809.846 174.41704903 396.8421 1014.485 177.89534869 396.8421 
1205.528 175.37803343 396.8421 1370.477 169.77507703 396.8421 1555.851 160.42369557 396.8421 
1718.696 149.96069579 396.8421 1831.49 141.62621104 396.8421 2000.426 127.62079269 396.8421 
2142.278 114.52786267 396.8421 2199.537 108.90784732 396.8421 2362.236 91.893662035 396.8421 
2475.539 79.122509174 396.8421 2610.501 62.891497205 396.8421 2726.16 48.064396771 396.8421 
2807.613 37.090407736 396.8421 2862.05 29.500969868 396.8421 2898.509 24.300483747 396.8421 
2927.749 20.060426964 396.8421 1873.106 138.34134067 396.8421 1463.165 165.46710951 396.8421 
1538.054 -132.81510157 396.8421 1637.272 155.43516557 396.8421 1678.104 -122.95656547 396.8421 
1957.846 131.3167694 396.8421 2072.22 121.14306371 396.8421 1288 172.92928085 396.8421 
1961.524 -99.304491263 396.8421 2047.334 -91.281731147 396.8421 1770.393 146.24596555 396.8421 
2171.038 -79.068422252 396.8421 2301.989 98.374678273 396.8421 2250.655 103.72897001 396.8421 
1812.721 -112.29479727 396.8421 1803.29 143.78886587 396.8421 1915.411 134.88998714 396.8421 
2036.686 124.38753577 396.8421 2107.61 117.83740034 396.8421 2170.909 111.74163239 396.8421 
2284.511 -58.460954113 793.6842 3000.027 28.580573761 793.6842 299.6143 -21.661832381 793.6842 
288.9304 -6.4786048612 793.6842 285.3691 3.2498499098 793.6842 284.1801 13.194838833 793.6842 
286.5551 27.242060806 793.6842 290.1167 35.260320558 793.6842 297.2417 45.641618543 793.6842 
312.6379 60.451543014 793.6842 315.336 -35.486156972 793.6842 2197.597 -67.361816376 793.6842 
340.2947 -50.761053169 793.6842 367.0612 -63.028119653 793.6842 394.9839 -73.309790005 793.6842 
427.3123 -83.138237091 793.6842 470.3812 -93.849603883 793.6842 528.0998 -105.21525612 793.6842 
606.8411 -116.85522751 793.6842 713.6708 -127.6534968 793.6842 851.8104 -135.62587763 793.6842 
1014.904 -138.85724996 793.6842 1162.147 -137.54283818 793.6842 1276.298 -134.37403399 793.6842 
1370.288 -130.59779105 793.6842 1462.927 -125.98565079 793.6842 1567.436 -119.85317476 793.6842 
1696.021 -111.12841609 793.6842 1837.82 -100.19830671 793.6842 1955.917 -90.17372047 793.6842 
2332.447 -53.400317296 793.6842 2405.659 -45.464982004 793.6842 2508.105 -33.942586852 793.6842 
2633.037 -19.221553817 793.6842 2755.801 -4.0152451727 793.6842 2841.209 7.0163742386 793.6842 
2900.561 14.910720723 793.6842 2941.997 20.537394622 793.6842 2972.917 24.798965826 793.6842 
336.9995 76.534951294 793.6842 362.6396 89.264487591 793.6842 389.1182 99.945773236 793.6842 
416.8239 109.37526903 793.6842 447.3145 118.27862593 793.6842 483.0167 127.23449659 793.6842 
527.1009 136.62215082 793.6842 587.0697 147.12912067 793.6842 674.2905 158.91813472 793.6842 
783.9349 169.38726636 793.6842 928.7766 177.76326727 793.6842 1126.317 181.90652636 793.6842 
1310.735 180.17012214 793.6842 1469.963 175.31758404 793.6842 1648.908 166.85641351 793.6842 
1806.105 157.19305693 793.6842 1914.987 149.41271083 793.6842 2078.064 136.22697558 793.6842 
2214.996 123.80504796 793.6842 2270.269 118.45001403 793.6842 2427.326 102.16680723 793.6842 
2536.699 89.883306947 793.6842 2666.98 74.20811888 793.6842 2778.628 59.834491667 793.6842 
2857.255 49.166823534 793.6842 2909.806 41.776055889 793.6842 2945.001 36.705916478 793.6842 
2973.224 32.56882741 793.6842 1955.16 146.33121067 793.6842 1559.437 171.45046244 793.6842 
1631.729 -115.64269517 793.6842 1727.505 162.26685503 793.6842 1766.921 -105.82315322 793.6842 
2036.96 139.71800097 793.6842 2147.368 130.09119372 793.6842 1390.347 178.08991202 793.6842 
2040.511 -82.525207326 793.6842 2123.346 -74.680459578 793.6842 1856.009 153.73265542 793.6842 
2242.759 -62.781300739 793.6842 2369.167 108.38113832 793.6842 2319.614 113.50441463 793.6842 
1896.869 -95.284619663 793.6842 1887.765 151.4371481 793.6842 1995.998 143.08580929 793.6842 
2113.066 133.16704207 793.6842 2181.531 126.95239232 793.6842 2242.634 121.15177363 793.6842 
2354.732 -45.271781155 1190.526 3044.539 38.370515737 1190.526 441.15 -13.673447281 1190.526 
430.8497 0.90357283858 1190.526 427.4164 10.254940528 1190.526 426.2701 19.822977118 1190.526 
428.5601 33.351861355 1190.526 431.9934 41.081920243 1190.526 438.8627 51.09880027 1190.526 
453.7057 65.40681518 1190.526 456.3069 -26.925392729 1190.526 2270.94 -53.878430288 1190.526 
480.3688 -41.542495399 1190.526 506.1737 -53.259380875 1190.526 533.0934 -63.062571229 1190.526 
564.26 -72.416316599 1190.526 605.7815 -82.587064265 1190.526 661.4265 -93.344617392 1190.526 
737.3385 -104.30831253 1190.526 840.33 -114.39156901 1190.526 973.5064 -121.69023593 1190.526 
1130.74 -124.39623074 1190.526 1272.693 -122.80139459 1190.526 1382.742 -119.51891762 1190.526 
1473.356 -115.70798862 1190.526 1562.666 -111.10823514 1190.526 1663.42 -105.04036845 1190.526 
1787.385 -96.462563949 1190.526 1924.09 -85.773072723 1190.526 2037.944 -76.007240533 1190.526 
2400.946 -40.384174234 1190.526 2471.527 -32.727922894 1190.526 2570.292 -21.626055979 1190.526 
2690.735 -7.4657868127 1190.526 2809.091 7.1370200311 1190.526 2891.43 17.71726789 1190.526 
2948.647 25.282273337 1190.526 2988.597 30.671206225 1190.526 3018.403 34.751169401 1190.526 
477.1918 80.971053233 1190.526 501.9109 93.310805834 1190.526 527.4382 103.68114651 1190.526 
554.1485 112.84986143 1190.526 583.5435 121.52040967 1190.526 617.963 130.25745272 1190.526 
660.4633 139.43530576 1190.526 718.2775 149.7379134 1190.526 802.3645 161.3527526 1190.526 
908.0698 171.75203618 1190.526 1047.707 180.21535268 1190.526 1238.151 184.70266351 1190.526 
1415.942 183.44403712 1190.526 1569.449 179.08544421 1190.526 1741.965 171.24055172 1190.526 
1893.514 162.15492033 1190.526 1998.484 154.78842497 1190.526 2155.702 142.23725947 1190.526 
2287.714 130.35784628 1190.526 2341.001 125.22376775 1190.526 2492.415 109.57355059 1190.526 
2597.858 97.735211618 1190.526 2723.46 82.595289712 1190.526 2831.095 68.685546618 1190.526 
2906.899 58.348036155 1190.526 2957.56 51.179837267 1190.526 2991.49 46.259688668 1190.526 
3018.699 42.243473715 1190.526 2037.214 151.86184102 1190.526 1655.708 175.51987719 1190.526 
1725.403 -100.89443097 1190.526 1817.738 166.93642115 1190.526 1855.738 -91.267745541 1190.526 
2116.075 145.56700281 1190.526 2222.516 136.37509134 1190.526 1492.694 181.60312981 1190.526 
2119.498 -68.574842897 1190.526 2199.357 -60.9658514 1190.526 1941.625 158.88294216 1190.526 
2314.479 -49.44763737 1190.526 2436.346 115.55264215 1190.526 2388.573 120.47627671 1190.526 
1981.017 -80.982278107 1190.526 1972.24 156.70846373 1190.526 2076.584 148.77484511 1190.526 
[...]
POINT_DATA 1740
FIELD FieldData 1
Pressure 1 1740 double
3.1049875812 3.0184543657 3.0095721074 2.9858404404 2.9789796716 2.9589154242 2.9715247828 2.9887822037 3.0198374908 
3.0338363543 3.0115672187 3.1090408311 3.034174265 3.0487552688 3.0660868772 3.0657605539 3.0829119953 3.0879542106 
3.1094463554 3.1142359652 3.1332672015 3.1419706373 3.1439834631 3.1505021132 3.1450636933 3.14122252 3.1374770729 
3.1334760767 3.1262833834 3.1201786151 3.1024538594 3.0989770632 3.0934495875 3.0852450311 3.0743564897 3.0642749932 
3.0544114395 3.0456832951 3.037642961 3.0696664619 3.0813194058 3.0937452264 3.1065963705 3.1126050149 3.1195045396 
3.1266380405 3.1344214433 3.1500319313 3.16253762 3.1787798158 3.1892695253 3.1961219362 3.2019471663 3.207377525 
3.211604223 3.2149765029 3.2155071417 3.1015132849 3.0996200741 3.0864384998 3.0803394059 3.0714497822 3.0615688517 
3.0510999419 3.0407537819 3.0332030235 3.0318919152 3.2147830024 3.2053044937 3.1360592849 3.2091446251 3.1297452673 
3.2152440185 3.2161955037 3.2031952007 3.1164524959 3.1126416873 3.2130495838 3.1068451111 3.0907386027 3.0926804785 
3.1228658742 3.2145937914 3.214765297 3.2154482747 3.2298393045 3.0969642368 3.1019311763 3.0235637596 3.0276698234 
3.001131484 3.0077826691 2.9861622108 2.9931530464 3.0049531893 3.0334970032 3.0519106333 3.0361401821 3.1062804461 
3.0564496325 3.0690446314 3.0821277956 3.0861641232 3.1015942416 3.1111619297 3.1245728257 3.1296502049 3.1405711235 
3.1447912313 3.1486627167 3.1496661164 3.1444892644 3.1398370152 3.1338850054 3.1297810505 3.123048607 3.1173428107 
3.0996347424 3.0954746954 3.0898853691 3.0817175996 3.0708625206 3.0608353433 3.0510859366 3.0434999431 3.0286352926 
3.0849334972 3.1058915432 3.1177967176 3.1264888939 3.1353819934 3.1402873851 3.1456884166 3.1555339712 3.1675143296 
3.1766505583 3.1854961391 3.1931719286 3.1997520861 3.2060864449 3.209146811 3.2119483243 3.2152540318 3.217878077 
3.0962984149 3.0973950003 3.0918098957 3.0855349822 3.0769003484 3.0659734696 3.0555822479 3.0454672556 3.0388522405 
3.0392139259 3.215698967 3.2075384649 3.1328319079 3.2119551094 3.1260593079 3.2164986778 3.218648851 3.2048937695 
3.1134860652 3.1096988004 3.2137144233 3.1042418823 3.0950907734 3.0976037021 3.1201741101 3.214477843 3.2155555785 
3.217661631 3.1083924854 3.0979014096 3.0997403648 3.0239458959 3.0280193753 3.0003956088 3.0017402923 2.984165565 
2.9960708428 3.0097142301 3.0385836673 3.0596837128 3.0447295704 3.1039857141 3.0596296981 3.0786891328 3.0966207848 
3.1029550507 3.1159001361 3.1242826985 3.1369314872 3.1431379772 3.1503375739 3.1530129947 3.1524590878 3.1509445211 
3.1440264206 3.1379920566 3.1320493425 3.1265032507 3.1204881216 3.1152793784 3.0973736383 3.0935024553 3.087717661 
3.0797886155 3.0688055484 3.0586693433 3.049542185 3.0422877544 3.0289027724 3.0922228816 3.1138999498 3.1318999433 
3.1410057221 3.1522797724 3.1603938476 3.1701577299 3.1743832268 3.1826978647 3.1925772183 3.1976400828 3.2030137525 
3.2058370431 3.2124895174 3.2148779734 3.2155480775 3.2176639856 3.225803268 3.0961265203 3.0956293956 3.0925046848 
3.0868454049 3.0786180268 3.0678527387 3.0578699295 3.0478827281 3.0407025809 3.0419186155 3.2182281817 3.2140034377 
3.1298651698 3.2157858724 3.1233090314 3.2185167637 3.0902017239 3.2100363096 3.1113486837 3.1074341074 3.2161886443 
3.1020886556 3.0949879958 3.0958197496 3.1178014352 3.2166874249 3.2183215797 3.1827770967 3.0927346488 3.0962573441 
3.098135444 3.0242746137 3.0286157927 3.0002534584 3.0024358356 2.9824753746 2.9921651866 3.0068408344 3.0393846933 
3.0608052351 3.0445678824 3.1023947136 3.0650509428 3.0826718533 3.1019560753 3.1105945565 3.1230146846 3.1309900859 
3.1438066321 3.1512679625 3.1571854349 3.1581855532 3.156180394 3.1521394953 3.1441111923 3.1374316725 3.1311418823 
3.1251232389 3.1189542541 3.113579818 3.0958514675 3.0919881468 3.0864302027 3.0785913222 3.0678456491 3.0577570082 
3.0490488955 3.0417966329 3.0289970703 3.0960597175 3.1193377867 3.134425377 3.1464532721 3.1534659293 3.16466633 
3.1768353051 3.1862281351 3.1941188808 3.2042257666 3.2093915992 3.2137161397 3.2146568877 3.2205142391 3.2226932768 
3.2224271194 3.2235608427 3.1866878047 3.0945022434 3.0948443299 3.0916081084 3.0861575587 3.0779865892 3.0677825834 
3.0580252334 3.0484684182 3.0410050664 3.0424644522 3.2234801887 3.2215371594 3.1286909494 3.2229311612 3.1218636462 
3.2238502481 3.0934401177 3.2179692052 3.1096962945 3.1057109313 3.222684274 3.1004163707 3.0935878701 3.094548992 
3.1161769657 3.2227462925 3.2238623662 3.0828582755 3.0940542233 3.0951164275 3.0971049394 3.0243564963 3.0306757918 
3.0009124127 3.006771472 2.9861828733 2.9940926976 3.0077671781 3.0415086056 3.0619902147 3.0460018874 3.1012927049 
3.0676377271 3.0851752571 3.1022953297 3.1120957571 3.1250679276 3.1355063443 3.1466527726 3.1547141341 3.1613187678 
3.1612550995 3.157848121 3.151944172 3.1432981733 3.13625965 3.129728434 3.1238569251 3.1177505373 3.1121636571 
3.0947596138 3.0908755101 3.0854535715 3.0776791334 3.0671728453 3.0572525338 3.0487401165 3.0413800084 3.0290630654 
3.0974765479 3.121145753 3.1359594685 3.1488008756 3.1579222817 3.1690104366 3.180067705 3.1857977538 3.1967057934 
3.209236789 3.2178058655 3.2219183038 3.2232400242 3.2280590426 3.2298359558 3.2294306737 3.2301052724 3.086067573 
3.0930336247 3.0928472264 3.0904145355 3.0853467141 3.0774893109 3.067456068 3.0577886908 3.0484988612 3.0409668578 
3.0427982259 3.2302761758 3.2294455409 3.1274286253 3.2298297431 3.1206814536 3.2341822515 3.0901067252 3.2261460528 
3.1083373698 3.1044119835 3.2295472157 3.0991646276 3.0923811685 3.0927247319 3.114940094 3.2296097423 3.2315643771 
3.0905677859 3.0923578432 3.0927643303 3.0961839175 3.0244281742 3.0317816515 3.0022413026 3.0086460937 2.9870777534 
2.9956135923 3.0091632081 3.0422693716 3.0637816492 3.0469962067 3.1002724991 3.0688733144 3.0871609223 3.1032954251 
3.1136397245 3.1266469504 3.1379513042 3.1496139706 3.1580015224 3.16490337 3.1638108125 3.1589992877 3.1513536422 
3.1423628613 3.1351554861 3.1287616105 3.122604907 3.1166176678 3.1111409315 3.0938120826 3.0899538325 3.0846340764 
3.076926458 3.0665491607 3.0566654076 3.0482818528 3.0408433524 3.0289949246 3.0988296365 3.1228359409 3.1378344404 
3.1507233623 3.1597804371 3.171406696 3.1837316235 3.1908029674 3.2019852114 3.2140070549 3.224413375 3.2293631356 
3.2313472387 3.2368129013 3.2378530047 3.2366689909 3.2367732542 3.0894738419 3.0939464566 3.0933137638 3.0904987322 
3.0855631154 3.0779850857 3.0679157368 3.0582840517 3.0491421672 3.041432165 3.0434198168 3.2369081681 3.2372953902 
3.1262411666 3.237355342 3.1195207295 3.1968215618 3.0944948552 3.234191491 3.1072823812 3.1034262408 3.2363422872 
3.0982939683 3.0923475789 3.0930115859 3.113813269 3.2364896757 3.2419641475 3.0920758637 3.0934817041 3.093808052 
3.0955643009 3.0242202893 3.0321747454 3.0024651307 3.0081850346 2.9866890725 2.9957235068 3.0093799476 3.0424385014 
3.0642606972 3.0475099478 3.0996994739 3.0695330808 3.0881165606 3.1041682339 3.1148347915 3.1279940708 3.1398064165 
3.1516734397 3.1602985364 3.1677107594 3.1659165872 3.1598797333 3.150834844 3.1417834602 3.1345504206 3.1282572181 
3.1217426076 3.1159473915 3.1104380504 3.0932222877 3.0893913841 3.0841194648 3.0764712721 3.066151134 3.0562173042 
3.047895321 3.0403488175 3.0290233532 3.0993336863 3.1235830549 3.1389776675 3.1519762248 3.1614361003 3.1731122557 
3.1853469185 3.1932035108 3.2048222352 3.2178587779 3.2292059957 3.2357635844 3.2387251668 3.244638597 3.2461324642 
3.2449235408 3.2443319773 3.0897979731 3.0932305221 3.0929717403 3.0900089064 3.0852138869 3.0778023963 3.0678612906 
3.0584705473 3.0493374876 3.0415519881 3.0437725102 3.2439056653 3.2456510747 3.1254628774 3.2458489642 3.1187831022 
3.1236042122 3.0907117075 3.2418901061 3.1065870686 3.1027952144 3.244286867 3.0976405322 3.0918884054 3.0925610151 
3.1131255564 3.2440121254 3.2453981086 3.0912053294 3.0919140364 3.0933477844 3.0951990886 3.0235076617 3.0325116666 
3.0027837629 3.0084243099 2.9869552823 2.9958762191 3.0094947541 3.0426389513 3.0645682051 3.0477966186 3.0993382256 
3.0699661524 3.0885372436 3.1045111318 3.1154537351 3.128828161 3.1410601168 3.1530880078 3.1619207862 3.1697892487 
3.1676178765 3.1605058032 3.1504298222 3.141467772 3.1342532831 3.1280523987 3.121476549 3.1157241093 3.1101797234 
3.0928985337 3.0891201734 3.0839316224 3.0762555586 3.0659859372 3.0559189681 3.0476406731 3.0399644296 3.0292917422 
3.0996662279 3.1240812893 3.1396906895 3.1528074869 3.1624036774 3.1741706323 3.1864884083 3.1949615658 3.2068689684 
3.2202630762 3.2322233443 3.2400513836 3.2445626286 3.251164207 3.2531937822 3.2526500231 3.2519171176 3.09012445 
3.0908951206 3.0906525092 3.0875986362 3.0829563483 3.0757019174 3.0661229834 3.0570640016 3.0481618102 3.040281823 
3.0430165923 3.2522984994 3.2530189671 3.1252554332 3.2531546845 3.1185794393 3.1006228205 3.0898497492 3.2481249143 
3.1063385067 3.1026225012 3.2521698481 3.0972385361 3.0895199914 3.0899212065 3.1128467088 3.251778987 3.251304668 
3.0902680786 3.0903617185 3.0905522557 3.0950940459 3.0224908493 3.0328969722 3.003138381 3.0088630558 2.9872644481 
2.9961903811 3.0097810103 3.0429727703 3.0649906953 3.0480437998 3.099154916 3.0702348844 3.0890388787 3.1050658969 
3.1162439844 3.1296074954 3.14212411 3.1542525438 3.1635180552 3.1716311286 3.1692803124 3.1612418826 3.1504683911 
3.1414563496 3.1342733867 3.1281108365 3.1215841565 3.1157788019 3.1101595966 3.0928223228 3.0890581796 3.0839324603 
3.0762136043 3.0659936046 3.0558064876 3.0475498951 3.039797769 3.0296760741 3.1001115832 3.124606146 3.1403647419 
3.1535584195 3.1632532246 3.1750815403 3.1873819641 3.1962495276 3.2084429297 3.2220884675 3.234316782 3.2433407246 
3.2486717223 3.2561433709 3.2595949239 3.2590401177 3.2591935008 3.0892441173 3.0881224549 3.0874704069 3.0843486539 
3.0799138691 3.0728807145 3.0634792505 3.0545980679 3.0461078174 3.0382196731 3.0412999139 3.259733177 3.2581306655 
3.1253568709 3.2594807813 3.1186640395 3.0937279577 3.0873181512 3.252611734 3.1063874956 3.1026040183 3.2588964833 
3.0970685128 3.0862280095 3.0864483484 3.1128238848 3.2586726124 3.2584569383 3.0880515301 3.087520085 3.0869541113 
3.0951705784 3.0219128453 3.0332731264 3.0034328529 3.0093169536 2.9875755857 2.9964769775 3.0100674431 3.0433198166 
3.0654460056 3.0481983931 3.0993042575 3.0704051564 3.0892279413 3.1053636466 3.1167082589 3.1301680689 3.1428858954 
3.1552569072 3.1647406314 3.1734285904 3.1710476823 3.1623476159 3.1509917372 3.1417957075 3.1346739538 3.1284389301 
3.122048482 3.1160639428 3.110371949 3.0929556916 3.0891735906 3.0840753568 3.0763242705 3.0661635157 3.0559252961 
3.0476749875 3.0398556639 3.029971965 3.1006176971 3.1251689322 3.1410411814 3.1542810338 3.1640588276 3.1759081484 
3.1882094609 3.1973251639 3.2097515976 3.2235427819 3.2359241714 3.2453628881 3.2514898861 3.2595051974 3.2631265713 
3.2640427493 3.2644372259 3.0875061503 3.0866809855 3.0854403152 3.0820218698 3.077850113 3.071034666 3.0615013034 
3.0526215507 3.0444529753 3.0366054022 3.0396951011 3.2648289286 3.2619297594 3.1258164815 3.2641136088 3.1190244497 
3.0884711784 3.0848015157 3.2557238714 3.1066317373 3.1027905794 3.2641667519 3.0970570882 3.08394027 3.0844457671 
3.1130032705 3.2641845431 3.264616028 3.0855094907 3.0855277058 3.0855068972 3.0955170504 3.0217543031 3.0336387609 
3.0036936318 3.0097490957 2.987943203 2.9967609072 3.0103406167 3.0437056466 3.0659108726 3.0482882549 3.0997290686 
3.0704287527 3.0892641351 3.1055124641 3.1170157045 3.1305389683 3.1433952907 3.1562080907 3.1658349134 3.1750509374 
3.1728485008 3.1638003136 3.1518405768 3.142316527 3.1352478664 3.1288742151 3.1225607039 3.1164547771 3.1107425757 
3.0932925315 3.089455037 3.084359414 3.0765497512 3.0664334333 3.0561269345 3.0478859505 3.0400295091 3.0301696879 
3.1011736833 3.1257536151 3.1417168118 3.1549959874 3.1648267624 3.1766870362 3.1889871921 3.1982740482 3.2108809293 
3.2247211105 3.2372161303 3.2468236149 3.2532726891 3.2617581418 3.2657058979 3.267183841 3.2679882806 3.0873257617 
3.086013373 3.0848945046 3.0809823389 3.0767599873 3.0699987947 3.0603032982 3.0514491192 3.0434332519 3.0357237699 
3.0386075823 3.268649724 3.2643175794 3.1263301334 3.2669425965 3.1194691337 3.0886662194 3.0842478641 3.2576758398 
3.1070149112 3.1032974895 3.2676146598 3.0974015543 3.0830200532 3.0838085074 3.1133280721 3.267714411 3.2684345696 
3.0840634085 3.084823076 3.0850809217 3.0959130265 3.0216891116 3.0339714574 3.0038950773 3.0102101788 2.9883751648 
2.9970485397 3.0106429886 3.0441642031 3.0663991661 3.0481545077 3.1001125385 3.0702197618 3.0891824831 3.1056098247 
3.1172685221 3.130838498 3.1438228854 3.1569824129 3.1672557597 3.1763448526 3.1745840935 3.165535209 3.152914697 
3.1429059063 3.1357981349 3.1293023659 3.1230799457 3.1168989591 3.1111344975 3.0936332868 3.089742009 3.0846661494 
3.0767834856 3.0666835441 3.0563199377 3.0480681289 3.0401843373 3.0303878739 3.1018087536 3.1263773741 3.1424638518 
3.1557738427 3.1656274501 3.1775011251 3.1897765753 3.1992012594 3.211957123 3.2257710402 3.2383164405 3.247985922 
3.2545373041 3.2632142259 3.2672788004 3.2691153217 3.2702607081 3.0880068033 3.084274382 3.0835638972 3.0796063434 
3.0753141315 3.0686141657 3.059028973 3.0503008743 3.0424287671 3.0349592968 3.037601083 3.2710615851 3.265971738 
3.1268462098 3.26878961 3.1199195001 3.0942557224 3.0831567641 3.2589823914 3.1074081598 3.1036533524 3.2696699754 
3.097765641 3.0815240094 3.0823841289 3.113715855 3.2699191863 3.2707027882 3.0841970013 3.0834421957 3.0836584348 
3.0962425084 3.0215785001 3.0342816686 3.0040169862 3.0106323751 2.9888736896 2.9973499324 3.0109877833 3.0449300534 
3.067012131 3.0478301736 3.1004704228 3.0698640255 3.0888907593 3.1055936759 3.1174282058 3.1310271167 3.1441573656 
3.1575509219 3.1683668106 3.1776559518 3.1765613741 3.1677714911 3.1544176555 3.1436063888 3.1363350215 3.1297169567 
3.1236031835 3.1173436912 3.1115282553 3.0939308408 3.0900123749 3.0849209519 3.0769948539 3.0668637951 3.0564749573 
3.0481925194 3.0403135651 3.0303736667 3.1026277074 3.1271269963 3.1433575513 3.1566918297 3.1665545364 3.1784298336 
3.1906905409 3.2002091813 3.2131296079 3.2268214551 3.2393568736 3.2490822958 3.2555885205 3.2642111351 3.2685851813 
3.2704988206 3.2717364274 3.0831389091 3.0808508977 3.0808970245 3.0777100609 3.0735352699 3.0669361081 3.0576125689 
3.0490228963 3.0413389665 3.0341383701 3.0366013918 3.2726024129 3.2671683989 3.1273714863 3.2701152129 3.1203650472 
3.0895381828 3.0803277326 3.2599807392 3.1077869954 3.10397777 3.2710798844 3.0981052922 3.0793882024 3.0800145444 
3.1141300716 3.2713390017 3.2752008565 3.0800948922 3.0804686981 3.0805900914 3.0966278725 3.0216336122 3.0346054773 
3.0041401933 3.011024023 2.9894870862 2.9977649008 3.0114221951 3.0461209184 3.0679966121 3.0474682984 3.1008606469 
3.0694739575 3.0885686554 3.1055525899 3.1175967384 3.1311259158 3.1443312858 3.1580614978 3.16919145 3.1790574912 
3.178750014 3.1706746281 3.1564596704 3.1443842619 3.1368175179 3.1300036391 3.1241030559 3.1176954928 3.1119646797 
3.0943029259 3.0903937391 3.0852178514 3.0773006544 3.0670621329 3.0566779357 3.048340791 3.0405124845 3.0301039605 
3.1038408811 3.1282180096 3.1443990513 3.157782761 3.1676424923 3.1795362851 3.1917957614 3.2014046687 3.2144879108 
3.2279595603 3.2404925595 3.2501778394 3.2566083779 3.2650850478 3.2696026815 3.2715941485 3.2730465216 3.0760410551 
3.0782717205 3.078494026 3.0763722235 3.0723628899 3.0658522283 3.0567763596 3.0482992118 3.0407554846 3.0337859067 
3.0360804773 3.2733716526 3.2681417303 3.127857713 3.2711872507 3.1208504323 3.073561453 3.0773548671 3.2608815996 
3.1081517968 3.1043315663 3.2721928188 3.0985402718 3.0778613106 3.0781287616 3.1146217308 3.2723703779 3.2623174424 
3.0764078406 3.0778563251 3.0779338136 3.0971965788 3.0218822714 3.0347565877 3.0042920818 3.0113970147 2.9903884012 
2.9982897819 3.0119999538 3.0475155732 3.0694148623 3.0470098013 3.1014698378 3.0689773487 3.0880850377 3.1053129375 
3.1174839839 3.1309056885 3.1440834382 3.1582917244 3.1698728381 3.1800994729 3.1809764207 3.1740380491 3.1590617275 
3.1450713652 3.1371113401 3.1301346656 3.1247693418 3.1187427876 3.1128536756 3.0949164697 3.0910319405 3.0856902049 
3.077830117 3.0674050778 3.0570069678 3.0485633055 3.0407577167 3.0295974174 3.1052647377 3.1295869462 3.1456194895 
3.1589942569 3.1688511414 3.1806630708 3.192986685 3.2027136676 3.2158727648 3.229167917 3.2415105114 3.2515715891 
3.2578404129 3.2661194944 3.2711453627 3.2735801542 3.2745450713 3.0826181198 3.0778650786 3.077759589 3.0761564817 
3.0720456034 3.0655262792 3.0567629889 3.048442731 3.0408323297 3.0339487139 3.0364903519 3.2757837722 3.2692289197 
3.1284095698 3.2727355925 3.1214687297 3.0813365627 3.0783952126 3.2619490551 3.1087977871 3.1049446181 3.2737055585 
3.0992189788 3.077559027 3.0776726422 3.1157536943 3.2744183553 3.0914215253 3.0791882331 3.0779953451 3.0776056193 
3.0979683654 3.0220715603 3.0334688772 3.0034205643 3.01120762 2.9902890849 2.9982005262 3.0122761075 3.0478864846 
3.0702898118 3.0461354525 3.1024941137 3.0673357931 3.0866867113 3.1042392386 3.1165562541 3.1300837457 3.1428146141 
3.1584195955 3.169560797 3.1809276262 3.1835577303 3.177947774 3.1624307001 3.146207112 3.1376584293 3.1307031577 
3.1256098259 3.1200386085 3.1139922255 3.0956970103 3.0917840586 3.0862489392 3.078371892 3.0677125812 3.0572787343 
3.0486541579 3.0409254137 3.0284955881 3.105974907 3.1305768528 3.1465160281 3.159712236 3.1697218531 3.181480194 
3.1939514477 3.2039194526 3.2171551945 3.2304288717 3.243324971 3.2528472405 3.2595528411 3.2680673698 3.2747533247 
3.2766639085 3.2773517002 3.0727263297 3.0781669526 3.0782417732 3.0762750705 3.072178986 3.0655873671 3.0572346069 
3.0491655806 3.0414528868 3.0346710432 3.0372117841 3.2726423208 3.2716648941 3.1291920299 3.2757882819 3.1224256435 
3.0711912223 3.0775285736 3.2635457297 3.1097916286 3.105646352 3.2762517554 3.1001321412 3.0780464246 3.0778079173 
3.1170272322 3.273929118 3.0552174078 3.0746678094 3.0782469847 3.0779861752 3.0985156091 3.0222212993 3.0326807721 
3.0011076888 3.0059441014 2.9893032621 2.9969916835 3.0116139877 3.0468372992 3.0698766164 3.0439194665 3.1026388671 
3.0656776938 3.0850148566 3.1031375704 3.1149240032 3.1288351389 3.1412078423 3.1589922631 3.1710091302 3.1834837101 
3.1883948132 3.1828473264 3.1670348322 3.1478199374 3.1386811701 3.1326009759 3.1270034429 3.1198726415 3.1146859735 
3.0963070653 3.0923584268 3.0867239951 3.0790325527 3.0678990255 3.0573463189 3.0484628549 3.0408176244 3.0261657592 
3.1057530603 3.1307232881 3.1471169079 3.160345852 3.1705819325 3.1823283769 3.1947546911 3.2057158315 3.2194013231 
3.2332324539 3.2468488214 3.2594142653 3.263771253 3.2719491848 3.2769231718 3.2761175247 3.2356979233 3.0734246516 
3.0789167229 3.0791636505 3.077806034 3.0735253849 3.0676319247 3.0588365375 3.0509192003 3.0432386207 3.0361815242 
3.0394820882 3.061077202 3.275198481 3.1300358862 3.2774158314 3.1229792493 3.0696985299 3.0780303337 3.2671650549 
3.1100729746 3.1059676523 3.2736136827 3.1007779532 3.0789365297 3.0792888385 3.1171745 3.2878393648 3.0685030442 
3.074189651 3.0785324223 3.0787980027 3.0986769353 3.0244554402 3.0346571256 3.0044869887 3.0081947102 2.9897601825 
2.9982741757 3.0136737917 3.0460145498 3.0691120324 3.047278957 3.1028765647 3.0676002326 3.0884349895 3.1032959211 
3.1170178134 3.1302299011 3.142803021 3.1630884908 3.1846248282 3.1901790845 3.1922929316 3.1848136574 3.1651057757 
3.1500843992 3.1398340678 3.1330403781 3.1262550747 3.1181299893 3.1127007752 3.0956638731 3.0933052597 3.087358113 
3.0781208534 3.0679815683 3.0567269678 3.0472669654 3.0388870743 3.023310192 3.1027760668 3.1305476626 3.1515376605 
3.1653543977 3.1744544165 3.1908878561 3.1999114798 3.2105695831 3.2284307463 3.2406091521 3.2564194303 3.265802519 