# vtk DataFile Version 4.2
vtk output
ASCII
DATASET POLYDATA
POINTS 7243 float
1583.49 -3281.15 0 1590.85 -3281.59 0 1591.68 -3281.15 0 
1544.88 -3264.15 0 1553.85 -3278.66 0 1623.87 -3264.15 0 
1534.37 -3247.15 0 1627.85 -3262.04 0 1656.06 -3247.15 0 
1523.86 -3230.15 0 1664.85 -3242.5 0 1688.25 -3230.14 0 
1513.35 -3213.15 0 1516.85 -3218.82 0 1701.86 -3222.96 0 
1720.44 -3213.14 0 1502.84 -3196.15 0 1738.86 -3203.41 0 
1752.63 -3196.14 0 1492.32 -3179.15 0 1775.86 -3183.87 0 
1784.82 -3179.14 0 1481.81 -3162.15 0 1812.86 -3164.33 0 
1817.01 -3162.14 0 1471.3 -3145.15 0 1479.85 -3158.98 0 
1849.2 -3145.14 0 1460.79 -3128.14 0 1849.86 -3144.78 0 
1881.39 -3128.13 0 1450.28 -3111.14 0 1886.87 -3125.24 0 
1913.58 -3111.13 0 1439.77 -3094.14 0 1442.86 -3099.13 0 
1923.87 -3105.7 0 1945.77 -3094.13 0 1429.26 -3077.14 0 
1960.87 -3086.15 0 1977.96 -3077.13 0 1418.75 -3060.14 0 
1997.87 -3066.61 0 2010.15 -3060.13 0 1408.24 -3043.14 0 
2034.88 -3052.48 0 2071.88 -3046.94 0 2098.91 -3043.12 0 
1397.73 -3026.14 0 1405.86 -3039.29 0 2108.88 -3041.71 0 
2145.88 -3036.49 0 2182.88 -3031.26 0 2219.25 -3026.12 0 
1387.22 -3009.14 0 2219.88 -3026.03 0 2256.88 -3020.8 0 
2293.88 -3015.57 0 2298.36 -3009.11 0 1376.71 -2992.14 0 
2305.08 -2992.11 0 1366.2 -2975.14 0 1368.86 -2979.45 0 
2308.51 -2975.11 0 1355.69 -2958.14 0 2311.94 -2958.11 0 
1345.17 -2941.14 0 2315.37 -2941.11 0 1334.66 -2924.14 0 
2318.8 -2924.11 0 1303.62 -2907.14 0 1331.86 -2922.56 0 
2322.23 -2907.11 0 1257.29 -2890.14 0 1257.86 -2890.35 0 
1294.86 -2903.92 0 2325.66 -2890.11 0 1210.95 -2873.14 0 
1220.86 -2876.77 0 2329.09 -2873.11 0 1164.62 -2856.14 0 
1183.86 -2863.2 0 2330.89 -2864.16 0 2332.52 -2856.1 0 
1118.28 -2839.14 0 1146.86 -2849.62 0 2335.95 -2839.1 0 
1071.95 -2822.14 0 1072.86 -2822.47 0 1109.86 -2836.05 0 
2339.38 -2822.1 0 1028.64 -2805.14 0 1035.86 -2808.9 0 
2342.81 -2805.1 0 1000.5 -2788.14 0 2346.24 -2788.1 0 
975.186 -2771.14 0 998.863 -2787.03 0 2349.67 -2771.1 0 
957.736 -2754.14 0 961.864 -2762.19 0 2353.1 -2754.1 0 
949.203 -2737.14 0 2356.53 -2737.1 0 940.903 -2720.13 0 
2359.96 -2720.1 0 932.827 -2703.13 0 2363.39 -2703.09 0 
924.966 -2686.13 0 2366.82 -2686.09 0 918.448 -2669.13 0 
924.867 -2685.92 0 2367.91 -2680.73 0 2370.25 -2669.09 0 
911.946 -2652.13 0 2373.68 -2652.09 0 905.444 -2635.13 0 
2377.11 -2635.09 0 898.942 -2618.13 0 2380.55 -2618.09 0 
892.44 -2601.13 0 2383.98 -2601.09 0 885.938 -2584.13 0 
887.872 -2589.18 0 2387.41 -2584.09 0 879.436 -2567.13 0 
2390.84 -2567.09 0 872.934 -2550.13 0 2394.27 -2550.09 0 
866.432 -2533.13 0 2397.7 -2533.08 0 859.93 -2516.12 0 
2401.13 -2516.08 0 853.428 -2499.12 0 2404.56 -2499.08 0 
846.926 -2482.12 0 850.876 -2492.45 0 2404.92 -2497.3 0 
2407.99 -2482.08 0 840.424 -2465.12 0 2411.42 -2465.08 0 
833.923 -2448.12 0 2414.85 -2448.08 0 827.421 -2431.12 0 
2418.28 -2431.08 0 820.919 -2414.12 0 2421.71 -2414.08 0 
814.417 -2397.12 0 2425.14 -2397.08 0 807.915 -2380.12 0 
813.881 -2395.72 0 2428.57 -2380.07 0 801.413 -2363.12 0 
2432 -2363.07 0 794.911 -2346.12 0 2435.43 -2346.07 0 
788.409 -2329.12 0 2438.86 -2329.07 0 781.907 -2312.11 0 
2441.93 -2313.86 0 2442.29 -2312.07 0 775.405 -2295.11 0 
776.886 -2298.99 0 2445.72 -2295.07 0 768.903 -2278.11 0 
2449.15 -2278.07 0 762.401 -2261.11 0 2452.58 -2261.07 0 
755.899 -2244.11 0 2456.01 -2244.07 0 749.398 -2227.11 0 
2459.44 -2227.06 0 742.896 -2210.11 0 2468.48 -2210.06 0 
736.394 -2193.11 0 739.89 -2202.25 0 2478.94 -2195.44 0 
2480.64 -2193.06 0 729.949 -2176.11 0 2492.8 -2176.06 0 
725.018 -2159.11 0 2504.95 -2159.06 0 722.592 -2142.11 0 
2515.94 -2143.7 0 2517.11 -2142.06 0 720.193 -2125.11 0 
2529.27 -2125.06 0 717.795 -2108.1 0 2534.75 -2108.06 0 
715.396 -2091.1 0 2537.44 -2091.05 0 712.997 -2074.1 0 
2538.62 -2074.05 0 710.598 -2057.1 0 2537.42 -2057.05 0 
708.199 -2040.1 0 2536.21 -2040.05 0 705.8 -2023.1 0 
2535.01 -2023.05 0 703.401 -2006.1 0 2533.81 -2006.05 0 
701.003 -1989.1 0 702.901 -2002.55 0 2532.61 -1989.05 0 
698.604 -1972.1 0 2531.41 -1972.05 0 696.205 -1955.1 0 
2530.21 -1955.05 0 693.806 -1938.1 0 2529.01 -1938.05 0 
691.407 -1921.09 0 2527.81 -1921.04 0 689.008 -1904.09 0 
2526.61 -1904.04 0 686.61 -1887.09 0 2525.41 -1887.04 0 
684.211 -1870.09 0 2524.21 -1870.04 0 681.812 -1853.09 0 
2523 -1853.04 0 679.413 -1836.09 0 2521.8 -1836.04 0 
677.014 -1819.09 0 2520.6 -1819.04 0 674.615 -1802.09 0 
2519.4 -1802.04 0 672.217 -1785.09 0 2518.2 -1785.04 0 
669.795 -1768.09 0 2517 -1768.04 0 668.481 -1751.08 0 
2515.96 -1753.38 0 2515.8 -1751.04 0 667.245 -1734.08 0 
2514.6 -1734.03 0 666.08 -1717.08 0 2513.4 -1717.03 0 
665.047 -1700.08 0 665.917 -1714.62 0 2512.2 -1700.03 0 
663.526 -1683.08 0 2511 -1683.03 0 661.971 -1666.08 0 
2509.79 -1666.03 0 660.417 -1649.08 0 2508.59 -1649.03 0 
657.243 -1632.08 0 2507.39 -1632.03 0 652.748 -1615.08 0 
2506.19 -1615.03 0 649.164 -1598.08 0 2504.99 -1598.03 0 
646.239 -1581.08 0 2504.16 -1581.03 0 -481.106 -1576.27 0 
-505.882 -1564.11 0 -444.105 -1573.6 0 -415.967 -1564.1 0 
643.807 -1564.07 0 2504.77 -1564.02 0 -518.106 -1558.1 0 
-540.497 -1547.11 0 -407.103 -1561.11 0 -370.101 -1548.61 0 
-365.617 -1547.1 0 641.753 -1547.07 0 2505.87 -1547.02 0 
-555.106 -1539.93 0 -575.112 -1530.11 0 -333.099 -1536.12 0 
-315.268 -1530.1 0 638.23 -1530.07 0 2506.97 -1530.02 0 
-592.106 -1521.76 0 -609.727 -1513.11 0 -296.098 -1523.63 0 
-264.918 -1513.1 0 634.491 -1513.07 0 1356.39 -1513.05 0 
1368.95 -1513.67 0 1405.95 -1514.86 0 1442.95 -1516.05 0 
1479.95 -1517.24 0 1516.95 -1518.43 0 1553.95 -1519.62 0 
1590.95 -1513.54 0 1591.46 -1513.05 0 2508.08 -1513.02 0 
-629.105 -1503.59 0 -644.342 -1496.11 0 -259.096 -1511.13 0 
-222.094 -1498.64 0 -214.568 -1496.09 0 630.753 -1496.07 0 
1296.32 -1496.05 0 1331.95 -1511.66 0 1609.06 -1496.04 0 
2509.18 -1496.02 0 -666.105 -1485.42 0 -678.958 -1479.11 0 
-185.092 -1486.14 0 -164.218 -1479.09 0 626.734 -1479.07 0 
628.93 -1487.78 0 1257.73 -1479.05 0 1257.95 -1479.24 0 
1294.95 -1495.45 0 1626.66 -1479.04 0 2510.28 -1479.02 0 
-703.105 -1467.25 0 -711.299 -1462.11 0 -148.091 -1473.65 0 
-113.868 -1462.09 0 622.974 -1462.07 0 1236.07 -1462.05 0 
1627.96 -1477.79 0 1644.26 -1462.04 0 2511.38 -1462.02 0 
-730.69 -1445.1 0 -111.089 -1461.44 0 -74.0879 -1460.21 0 
-51.3723 -1445.09 0 619.538 -1445.07 0 1213.92 -1445.05 0 
1220.95 -1452.07 0 1661.85 -1445.04 0 2512.48 -1445.02 0 
-740.104 -1432.89 0 -743.529 -1428.1 0 -37.0853 -1432.94 0 
-33.6643 -1428.08 0 615.799 -1428.07 0 1196.91 -1428.05 0 
1664.96 -1442.04 0 1680.02 -1428.04 0 2513.58 -1428.02 0 
-755.699 -1411.1 0 -21.6742 -1411.08 0 612.061 -1411.07 0 
1179.9 -1411.05 0 1183.95 -1415.1 0 1697.88 -1411.04 0 
2514.69 -1411.02 0 -767.869 -1394.1 0 -10.0729 -1394.08 0 
608.323 -1394.07 0 1162.89 -1394.05 0 1701.96 -1407.08 0 
1717.45 -1394.04 0 2515.79 -1394.01 0 -777.102 -1381.2 0 
-780.038 -1377.1 0 -0.0811991 -1380.47 0 2.30613 -1377.08 0 
604.584 -1377.06 0 1145.87 -1377.05 0 1146.95 -1378.13 0 
1737.63 -1377.03 0 2515.99 -1390.97 0 2516.89 -1377.01 0 
-792.208 -1360.1 0 14.2964 -1360.08 0 600.846 -1360.06 0 
1128.14 -1360.05 0 1738.97 -1375.91 0 1755.27 -1360.03 0 
2517.74 -1360.01 0 -804.378 -1343.1 0 26.2865 -1343.08 0 
597.107 -1343.06 0 1106.87 -1343.05 0 1109.95 -1345.15 0 
1767.56 -1343.03 0 2518.38 -1343.01 0 -814.1 -1329.52 0 
-816.547 -1326.1 0 36.9229 -1328 0 38.2767 -1326.08 0 
593.369 -1326.06 0 1081.94 -1326.05 0 1775.97 -1327.32 0 
1776.47 -1326.03 0 2517.91 -1326.01 0 -828.717 -1309.1 0 
50.2668 -1309.08 0 587.924 -1309.06 0 591.938 -1321.61 0 
1057 -1309.05 0 1072.95 -1319.92 0 1782.97 -1309.03 0 
2515.99 -1316.03 0 2514.39 -1309.01 0 -840.887 -1292.1 0 
62.2571 -1292.07 0 578.369 -1292.06 0 1032.06 -1292.05 0 
1035.95 -1294.7 0 1789.48 -1292.03 0 2511.14 -1292.01 0 
-851.098 -1277.83 0 -853.056 -1275.1 0 73.927 -1275.53 0 
74.2472 -1275.07 0 571.065 -1275.06 0 1007.13 -1275.05 0 
1795.99 -1275.03 0 2508.09 -1275.01 0 -865.226 -1258.1 0 
86.2374 -1258.07 0 565.238 -1258.06 0 989.265 -1258.05 0 
998.952 -1269.47 0 1803.09 -1258.03 0 2504.82 -1258.01 0 
-877.396 -1241.1 0 98.2276 -1241.07 0 560.466 -1241.06 0 
974.792 -1241.05 0 1812.98 -1242.26 0 1813.75 -1241.02 0 
2501.54 -1241.01 0 -888.096 -1226.15 0 -889.566 -1224.1 0 
110.218 -1224.07 0 556.508 -1224.06 0 960.601 -1224.05 0 
961.954 -1226.04 0 1824.41 -1224.02 0 2498.27 -1224 0 
-901.735 -1207.1 0 110.931 -1223.06 0 120.821 -1207.07 0 
552.51 -1207.06 0 554.943 -1217.34 0 949.056 -1207.05 0 
1835.08 -1207.02 0 2494.99 -1207 0 -913.905 -1190.09 0 
127.723 -1190.07 0 548.49 -1190.06 0 937.511 -1190.04 0 
1845.74 -1190.02 0 2491.72 -1190 0 -925.094 -1174.46 0 
-926.075 -1173.09 0 132.549 -1173.07 0 544.478 -1173.05 0 
925.966 -1173.04 0 1849.98 -1183.26 0 1856.4 -1173.02 0 
2488.57 -1173 0 -938.244 -1156.09 0 135.326 -1156.06 0 
540.472 -1156.05 0 915.549 -1156.04 0 924.956 -1171.55 0 
1867.06 -1156.02 0 2487.39 -1156 0 -950.848 -1139.09 0 
136.981 -1139.06 0 536.474 -1139.05 0 906.515 -1139.04 0 
1877.73 -1139.02 0 2486.66 -1139 0 -962.092 -1128.27 0 
-967.811 -1122.09 0 138.636 -1122.06 0 532.483 -1122.05 0 
897.481 -1122.04 0 1886.98 -1124.26 0 1888.17 -1122.02 0 
2486.14 -1122 0 -987.562 -1105.09 0 140.291 -1105.06 0 
528.498 -1105.05 0 888.447 -1105.04 0 1896.5 -1105.01 0 
2485.62 -1105 0 -999.091 -1095.15 0 -1005.4 -1088.09 0 
141.946 -1088.06 0 524.52 -1088.05 0 879.413 -1088.04 0 
887.959 -1104.12 0 1903.06 -1088.01 0 2485.09 -1088 0 
-1015.38 -1071.09 0 143.602 -1071.06 0 520.55 -1071.05 0 
870.379 -1071.04 0 1908.93 -1071.01 0 2484.57 -1071 0 
-1019.13 -1054.09 0 147.942 -1060 0 150.288 -1054.06 0 
516.54 -1054.05 0 517.952 -1059.91 0 860.74 -1054.04 0 
1914.79 -1054.01 0 2484.05 -1053.99 0 -1021.51 -1037.09 0 
157.102 -1037.06 0 512.447 -1037.05 0 847.121 -1037.04 0 
850.962 -1041.93 0 1920.66 -1037.01 0 2483.53 -1036.99 0 
-1023.88 -1020.09 0 163.916 -1020.06 0 508.353 -1020.05 0 
832.726 -1020.04 0 1923.99 -1027.37 0 1926.53 -1020.01 0 
2483.01 -1019.99 0 -1026.26 -1003.09 0 170.729 -1003.05 0 
[...]
POINT_DATA 7243
SCALARS Pressure double
LOOKUP_TABLE default
3.0932710339 3.0932710339 3.0932710339 3.0932710339 3.0932710339 3.0932710339 3.0932710339 3.0932710339 3.0932710339 
3.0932710339 3.0932710339 3.0932710339 3.0932710339 3.0932710339 3.0932710339 3.0932710339 3.0932710339 3.0932710339 
3.0932710339 3.0932710339 3.0932710339 3.0932710339 3.0932710339 3.0932710339 3.0932710339 3.0932710339 3.0932710339 
3.0932710339 3.0932710339 3.0932710339 3.0932710339 3.0932710339 3.0932710339 3.0932710339 3.0932710339 3.0932710339 
3.0932710339 3.0932710339 3.0932710339 3.0932710339 3.0932710339 3.0932710339 3.0932710339 3.0932710339 3.0932710339 
3.0932710339 3.0932710339 3.0932710339 3.0932710339 3.0932710339 3.0932710339 3.0932710339 3.0932710339 3.0932710339 
3.0932710339 3.0932710339 3.0932710339 3.0932710339 3.0932710339 3.0932710339 3.0932710339 3.0932710339 3.0932710339 
3.0932710339 3.0932710339 3.0932710339 3.0932710339 3.0932710339 3.0932710339 3.0932710339 3.0932710339 3.0932710339 
3.0932710339 3.0932710339 3.0932710339 3.0932710339 3.0932710339 3.0932710339 3.0932710339 3.0932710339 3.0932710339 
3.0932710339 3.0932710339 3.0932710339 3.0932710339 3.0932710339 3.0932710339 3.0932710339 3.0932710339 3.0932710339 
3.0932710339 3.0932710339 3.0932710339 3.0932710339 3.0932710339 3.0932710339 3.0932710339 3.0932710339 3.0932710339 
3.0932710339 3.0932710339 3.0932710339 3.0932710339 3.0932710339 3.0932710339 3.0932710339 3.0932710339 3.0932710339 
3.0932710339 3.0932710339 3.0932710339 3.0932710339 3.0932710339 3.0932710339 3.0932710339 3.0932710339 3.0932710339 
3.0932710339 3.0932710339 3.0932710339 3.0932710339 3.0932710339 3.0932710339 3.0932710339 3.0932710339 3.0932710339 
3.0932710339 3.0932710339 3.0932710339 3.0932710339 3.0932710339 3.0932710339 3.0932710339 3.0932710339 3.0932710339 
3.0932710339 3.0932710339 3.0932710339 3.0932710339 3.0932710339 3.0932710339 3.0932710339 3.0932710339 3.0932710339 
3.0932710339 3.0932710339 3.0932710339 3.0932710339 3.0932710339 3.0932710339 3.0932710339 3.0932710339 3.0932710339 
3.0932710339 3.0932710339 3.0932710339 3.0932710339 3.0932710339 3.0932710339 3.0932710339 3.0932710339 3.0932710339 
3.0932710339 3.0932710339 3.0932710339 3.0932710339 3.0932710339 3.0932710339 3.0932710339 3.0932710339 3.0932710339 
3.0932710339 3.0932710339 3.0932710339 3.0932710339 3.0932710339 3.0932710339 3.0932710339 3.0932710339 3.0932710339 
3.0932710339 3.0932710339 3.0932710339 3.0932710339 3.0932710339 3.0932710339 3.0932710339 3.0932710339 3.0932710339 
3.0932710339 3.0932710339 3.0932710339 3.0932710339 3.0932710339 3.0932710339 3.0932710339 3.0932710339 3.0932710339 
3.0932710339 3.0932710339 3.0932710339 3.0932710339 3.0932710339 3.0932710339 3.0932710339 3.0932710339 3.0932710339 
3.0932710339 3.0932710339 3.0932710339 3.0932710339 3.0932710339 3.0932710339 3.0932710339 3.0932710339 3.0932710339 
3.0932710339 3.0932710339 3.0932710339 3.0932710339 3.0932710339 3.0932710339 3.0932710339 3.0932710339 3.0932710339 
3.0932710339 3.0932710339 3.0932710339 3.0932710339 3.0932710339 3.0932710339 3.0932710339 3.0932710339 3.0932710339 
3.0932710339 3.0932710339 3.0932710339 3.0932710339 3.0932710339 3.0932710339 3.0932710339 3.0932710339 3.0932710339 
3.0932710339 3.0932710339 3.0932710339 3.0932710339 3.0932710339 3.0932710339 3.0932710339 3.0932710339 3.0932710339 
3.0932710339 3.0932710339 3.0786768432 3.0786768432 3.0786768432 3.0786768432 3.0932710339 3.0932710339 3.0786768432 
3.0786768432 3.0786768432 3.0786768432 3.0786768432 3.0932710339 3.0932710339 3.0786768432 3.0786768432 3.0786768432 
3.0786768432 3.0932710339 3.0932710339 3.0786768432 3.0786768432 3.0786768432 3.0786768432 3.0932710339 3.1078652246 
3.1078652246 3.1078652246 3.1078652246 3.1078652246 3.1078652246 3.1078652246 3.1078652246 3.1078652246 3.0932710339 
3.0786768432 3.0786768432 3.0786768432 3.0786768432 3.0786768432 3.0932710339 3.1078652246 3.1078652246 3.1078652246 
3.0932710339 3.0786768432 3.0786768432 3.0786768432 3.0786768432 3.0932710339 3.0932710339 3.1078652246 3.1078652246 
3.1078652246 3.1078652246 3.0932710339 3.0786768432 3.0786768432 3.0786768432 3.0786768432 3.0932710339 3.1078652246 
3.1078652246 3.1078652246 3.0932710339 3.0786768432 3.0786768432 3.0786768432 3.0786768432 3.0932710339 3.1078652246 
3.1078652246 3.1078652246 3.0932710339 3.0786768432 3.0786768432 3.0786768432 3.0786768432 3.0932710339 3.1078652246 
3.1078652246 3.1078652246 3.0932710339 3.0786768432 3.0786768432 3.0932710339 3.1078652246 3.1078652246 3.1078652246 
3.0932710339 3.0786768432 3.0786768432 3.0932710339 3.1078652246 3.1078652246 3.1078652246 3.0932710339 3.0786768432 
3.0786768432 3.0786768432 3.0786768432 3.0932710339 3.1078652246 3.1078652246 3.1078652246 3.0932710339 3.0932710339 
3.0786768432 3.0786768432 3.0932710339 3.1078652246 3.1078652246 3.1078652246 3.0932710339 3.0786768432 3.0786768432 
3.0932710339 3.1078652246 3.1078652246 3.1078652246 3.0932710339 3.0786768432 3.0786768432 3.0786768432 3.0786768432 
3.0932710339 3.1078652246 3.1078652246 3.1078652246 3.0932710339 3.0786768432 3.0786768432 3.0932710339 3.0932710339 
3.1078652246 3.1078652246 3.1078652246 3.0932710339 3.0932710339 3.0786768432 3.0786768432 3.0932710339 3.1078652246 
3.1078652246 3.1078652246 3.0932710339 3.0786768432 3.0786768432 3.0786768432 3.0786768432 3.0932710339 3.1078652246 
3.1078652246 3.0932710339 3.0786768432 3.0786768432 3.0932710339 3.1078652246 3.1078652246 3.1078652246 3.0932710339 
3.0786768432 3.0786768432 3.0932710339 3.1078652246 3.1078652246 3.1078652246 3.0932710339 3.0786768432 3.0786768432 
3.0786768432 3.0932710339 3.1078652246 3.1078652246 3.1078652246 3.0932710339 3.0786768432 3.0786768432 3.0786768432 
3.0932710339 3.0932710339 3.1078652246 3.1078652246 3.0932710339 3.0786768432 3.0786768432 3.0932710339 3.1078652246 
3.1078652246 3.0932710339 3.0786768432 3.0786768432 3.0786768432 3.0932710339 3.1078652246 3.1078652246 3.1078652246 
3.0932710339 3.0786768432 3.0786768432 3.0932710339 3.1078652246 3.1078652246 3.1078652246 3.0932710339 3.0786768432 
3.0786768432 3.0932710339 3.1078652246 3.1078652246 3.0932710339 3.0786768432 3.0786768432 3.0786768432 3.0932710339 
3.1078652246 3.1078652246 3.1078652246 3.0932710339 3.0786768432 3.0786768432 3.0932710339 3.1078652246 3.1078652246 
3.0932710339 3.0786768432 3.0786768432 3.0786768432 3.0932710339 3.1078652246 3.1078652246 3.1078652246 3.0932710339 
3.0786768432 3.0786768432 3.0932710339 3.1078652246 3.1078652246 3.0932710339 3.0786768432 3.0786768432 3.0786768432 
3.0932710339 3.0932710339 3.1078652246 3.1078652246 3.0932710339 3.0786768432 3.0786768432 3.0932710339 3.1078652246 
3.1078652246 3.1078652246 3.0932710339 3.0786768432 3.0786768432 3.0932710339 3.1078652246 3.1078652246 3.1078652246 
3.0932710339 3.0786768432 3.0786768432 3.0932710339 3.1078652246 3.1078652246 3.0932710339 3.0786768432 3.0786768432 
3.0932710339 3.1078652246 3.1078652246 3.1078652246 3.0932710339 3.0786768432 3.0786768432 3.0932710339 3.1078652246 
3.1078652246 3.0932710339 3.0786768432 3.0786768432 3.0786768432 3.0932710339 3.1078652246 3.1078652246 3.1078652246 
3.0932710339 3.0932710339 3.0786768432 3.0786768432 3.0932710339 3.1078652246 3.1078652246 3.0932710339 3.0786768432 
3.0786768432 3.0786768432 3.0932710339 3.1078652246 3.1078652246 3.1078652246 3.0932710339 3.0786768432 3.0786768432 
3.0932710339 3.1078652246 3.1078652246 3.0932710339 3.0786768432 3.0786768432 3.0932710339 3.0932710339 3.1078652246 
3.1078652246 3.1078652246 3.0932710339 3.0786768432 3.0786768432 3.0932710339 3.1078652246 3.1224594153 3.1224594153 
3.1224594153 3.1224594153 3.1224594153 3.1078652246 3.0932710339 3.0786768432 3.0786768432 3.0932710339 3.1078652246 
3.1224594153 3.1224594153 3.1224594153 3.1224594153 3.1224594153 3.1224594153 3.1078652246 3.0932710339 3.0786768432 
3.0786768432 3.0932710339 3.1078652246 3.1224594153 3.1224594153 3.1224594153 3.1224594153 3.1224594153 3.1078652246 
3.0932710339 3.0786768432 3.0786768432 3.0932710339 3.1078652246 3.1078652246 3.1224594153 3.1224594153 3.1224594153 
3.1078652246 3.1078652246 3.0932710339 3.0786768432 3.0786768432 3.0932710339 3.1078652246 3.1224594153 3.1224594153 
3.1224594153 3.1078652246 3.0932710339 3.0786768432 3.0786768432 3.0932710339 3.0932710339 3.1078652246 3.1224594153 
3.1224594153 3.1224594153 3.1078652246 3.0932710339 3.0786768432 3.0786768432 3.0786768432 3.0786768432 3.0786768432 
3.0786768432 3.0932710339 3.1078652246 3.1078652246 3.1224594153 3.1224594153 3.1224594153 3.1078652246 3.0932710339 
3.0786768432 3.0786768432 3.0786768432 3.0786768432 3.0786768432 3.0786768432 3.0786768432 3.0932710339 3.1078652246 
3.1224594153 3.1224594153 3.1224594153 3.1078652246 3.0932710339 3.0786768432 3.0786768432 3.0786768432 3.0786768432 
3.0786768432 3.0640826525 3.0640826525 3.0640826525 3.0640826525 3.0640826525 3.0640826525 3.0640826525 3.0786768432 
3.0932710339 3.1078652246 3.1224594153 3.1224594153 3.1224594153 3.1078652246 3.0932710339 3.0786768432 3.0786768432 
3.0786768432 3.0786768432 3.0786768432 3.0640826525 3.0640826525 3.0640826525 3.0640826525 3.0786768432 3.0932710339 
3.1078652246 3.1224594153 3.1224594153 3.1224594153 3.1224594153 3.1078652246 3.0932710339 3.0786768432 3.0786768432 
3.0786768432 3.0786768432 3.0786768432 3.0786768432 3.0640826525 3.0640826525 3.0640826525 3.0786768432 3.0932710339 
3.1078652246 3.1224594153 3.1224594153 3.1078652246 3.1078652246 3.0932710339 3.0786768432 3.0786768432 3.0786768432 
3.0786768432 3.0786768432 3.0640826525 3.0640826525 3.0640826525 3.0640826525 3.0786768432 3.0932710339 3.1078652246 
3.1078652246 3.1224594153 3.1224594153 3.1224594153 3.1078652246 3.0932710339 3.0786768432 3.0786768432 3.0786768432 
3.0786768432 3.0786768432 3.0640826525 3.0640826525 3.0786768432 3.0932710339 3.1078652246 3.1224594153 3.1224594153 
3.1224594153 3.1078652246 3.0932710339 3.0786768432 3.0786768432 3.0786768432 3.0640826525 3.0640826525 3.0640826525 
3.0640826525 3.0786768432 3.0932710339 3.1078652246 3.1224594153 3.1224594153 3.1224594153 3.1078652246 3.0932710339 
3.0786768432 3.0786768432 3.0786768432 3.0786768432 3.0786768432 3.0640826525 3.0640826525 3.0786768432 3.0932710339 
3.1078652246 3.1224594153 3.1224594153 3.1078652246 3.0932710339 3.0786768432 3.0786768432 3.0786768432 3.0786768432 
3.0640826525 3.0640826525 3.0640826525 3.0786768432 3.0932710339 3.1078652246 3.1224594153 3.1224594153 3.1224594153 
3.1078652246 3.0932710339 3.0786768432 3.0786768432 3.0786768432 3.0786768432 3.0640826525 3.0640826525 3.0640826525 
3.0786768432 3.0932710339 3.0932710339 3.1078652246 3.1078652246 3.1224594153 3.1224594153 3.1224594153 3.1078652246 
3.0932710339 3.0786768432 3.0786768432 3.0786768432 3.0640826525 3.0640826525 3.0786768432 3.0932710339 3.1078652246 
3.1224594153 3.1224594153 3.1078652246 3.0932710339 3.0786768432 3.0786768432 3.0786768432 3.0786768432 3.0640826525 
3.0640826525 3.0640826525 3.0640826525 3.0786768432 3.0932710339 3.1078652246 3.1224594153 3.1224594153 3.1224594153 
3.1078652246 3.0932710339 3.0786768432 3.0786768432 3.0786768432 3.0640826525 3.0640826525 3.0786768432 3.0932710339 
3.1078652246 3.1224594153 3.1224594153 3.1078652246 3.1078652246 3.0932710339 3.0786768432 3.0786768432 3.0786768432 
3.0640826525 3.0640826525 3.0786768432 3.0932710339 3.1078652246 3.1078652246 3.1224594153 3.1224594153 3.1224594153 
3.1224594153 3.1078652246 3.0932710339 3.0786768432 3.0786768432 3.0786768432 3.0786768432 3.0640826525 3.0640826525 
3.0786768432 3.0932710339 3.1078652246 3.1224594153 3.137053606 3.137053606 3.137053606 3.1224594153 3.1078652246 
3.0932710339 3.0786768432 3.0786768432 3.0786768432 3.0786768432 3.0640826525 3.0640826525 3.0786768432 3.0932710339 
3.1078652246 3.1224594153 3.1224594153 3.137053606 3.137053606 3.137053606 3.137053606 3.1224594153 3.1078652246 
3.0932710339 3.0786768432 3.0786768432 3.0786768432 3.0640826525 3.0640826525 3.0640826525 3.0786768432 3.0932710339 
3.1078652246 3.1078652246 3.1224594153 3.137053606 3.137053606 3.137053606 3.137053606 3.1224594153 3.1078652246 
3.0932710339 3.0786768432 3.0786768432 3.0786768432 3.0786768432 3.0640826525 3.0640826525 3.0640826525 3.0786768432 
3.0932710339 3.1078652246 3.1224594153 3.137053606 3.137053606 3.137053606 3.137053606 3.1224594153 3.1078652246 
3.0932710339 3.0786768432 3.0786768432 3.0786768432 3.0640826525 3.0640826525 3.0786768432 3.0932710339 3.0932710339 
3.1078652246 3.1224594153 3.1224594153 3.137053606 3.137053606 3.1224594153 3.1078652246 3.0932710339 3.0786768432 
3.0786768432 3.0786768432 3.0786768432 3.0640826525 3.0494884618 3.0494884618 3.0494884618 3.0494884618 3.0494884618 
3.0640826525 3.0786768432 3.0932710339 3.1078652246 3.1224594153 3.137053606 3.137053606 3.137053606 3.1224594153 
3.1224594153 3.1078652246 3.0932710339 3.0932710339 3.0786768432 3.0786768432 3.0786768432 3.0786768432 3.0640826525 
3.0494884618 3.0494884618 3.0494884618 3.0494884618 3.0640826525 3.0786768432 3.0932710339 3.1078652246 3.1078652246 
3.1224594153 3.137053606 3.137053606 3.137053606 3.137053606 3.1224594153 3.1078652246 3.0932710339 3.0786768432 
3.0786768432 3.0786768432 3.0640826525 3.0640826525 3.0494884618 3.0494884618 3.0494884618 3.0640826525 3.0786768432 
3.0932710339 3.1078652246 3.1224594153 3.1224594153 3.137053606 3.137053606 3.1224594153 3.1078652246 3.0932710339 
3.0786768432 3.0786768432 3.0786768432 3.0640826525 3.0494884618 3.0494884618 3.0494884618 3.0640826525 3.0786768432 
3.0932710339 3.1078652246 3.1224594153 3.137053606 3.137053606 3.137053606 3.137053606 3.1224594153 3.1078652246 
3.0932710339 3.0786768432 3.0786768432 3.0786768432 3.0786768432 3.0786768432 3.0640826525 3.0494884618 3.0494884618 
3.0494884618 3.0640826525 3.0786768432 3.0932710339 3.0932710339 3.1078652246 3.1078652246 3.1224594153 3.137053606 
3.137053606 3.137053606 3.1224594153 3.1078652246 3.0932710339 3.0786768432 3.0786768432 3.0786768432 3.0640826525 
3.0494884618 3.0494884618 3.0640826525 3.0786768432 3.0932710339 3.1078652246 3.1224594153 3.1224594153 3.137053606 
3.137053606 3.1224594153 3.1078652246 3.0932710339 3.0786768432 3.0786768432 3.0786768432 3.0640826525 3.0494884618 
3.0494884618 3.0494884618 3.0494884618 3.0640826525 3.0786768432 3.0932710339 3.1078652246 3.1224594153 3.137053606 
3.137053606 3.137053606 3.1224594153 3.1078652246 3.0932710339 3.0786768432 3.0786768432 3.0786768432 3.0786768432 
3.0640826525 3.0494884618 3.0494884618 3.0640826525 3.0786768432 3.0786768432 3.0932710339 3.1078652246 3.1224594153 
3.137053606 3.137053606 3.137053606 3.1224594153 3.1078652246 3.0932710339 3.0786768432 3.0786768432 3.0786768432 
3.0786768432 3.0640826525 3.0494884618 3.0494884618 3.0640826525 3.0786768432 3.0932710339 3.1078652246 3.1078652246 
3.1224594153 3.137053606 3.137053606 3.1224594153 3.1078652246 3.0932710339 3.0786768432 3.0786768432 3.0786768432 
3.0786768432 3.0786768432 3.0640826525 3.0494884618 3.0494884618 3.0494884618 3.0640826525 3.0786768432 3.0932710339 
3.0932710339 3.1078652246 3.1224594153 3.1224594153 3.137053606 3.137053606 3.1224594153 3.1078652246 3.0932710339 
3.0786768432 3.0786768432 3.0786768432 3.0786768432 3.0640826525 3.0640826525 3.0494884618 3.0348942711 3.0348942711 
3.0348942711 3.0348942711 3.0494884618 3.0640826525 3.0786768432 3.0932710339 3.1078652246 3.1224594153 3.137053606 
3.137053606 3.137053606 3.1224594153 3.1078652246 3.0932710339 3.0786768432 3.0786768432 3.0786768432 3.0786768432 
3.0786768432 3.0640826525 3.0494884618 3.0348942711 3.0348942711 3.0348942711 3.0348942711 3.0494884618 3.0494884618 
3.0640826525 3.0786768432 3.0932710339 3.1078652246 3.1224594153 3.137053606 3.137053606 3.137053606 3.1224594153 
3.1078652246 3.0932710339 3.0932710339 3.0786768432 3.0640826525 3.0640826525 3.0640826525 3.0640826525 3.0640826525 
3.0640826525 3.0786768432 3.0786768432 3.0786768432 3.0786768432 3.0786768432 3.0786768432 3.0786768432 3.0786768432 
3.0640826525 3.0494884618 3.0348942711 3.0348942711 3.0348942711 3.0494884618 3.0640826525 3.0786768432 3.0932710339 
3.1078652246 3.1078652246 3.1224594153 3.137053606 3.137053606 3.1224594153 3.1078652246 3.0932710339 3.0786768432 
3.0640826525 3.0640826525 3.0640826525 3.0786768432 3.0786768432 3.0786768432 3.0640826525 3.0494884618 3.0348942711 
3.0348942711 3.0348942711 3.0494884618 3.0640826525 3.0786768432 3.0932710339 3.1078652246 3.1224594153 3.137053606 
3.137053606 3.137053606 3.1224594153 3.1078652246 3.0932710339 3.0786768432 3.0786768432 3.0640826525 3.0640826525 
3.0640826525 3.0786768432 3.0786768432 3.0640826525 3.0494884618 3.0348942711 3.0348942711 3.0494884618 3.0640826525 
3.0786768432 3.0932710339 3.1078652246 3.1224594153 3.137053606 3.137053606 3.1224594153 3.1078652246 3.0932710339 
3.0786768432 3.0640826525 3.0640826525 3.0640826525 3.0640826525 3.0786768432 3.0786768432 3.0786768432 3.0640826525 
3.0494884618 3.0494884618 3.0348942711 3.0348942711 3.0203000804 3.0203000804 3.0203000804 3.0348942711 3.0348942711 
3.0494884618 3.0640826525 3.0786768432 3.0786768432 3.0932710339 3.1078652246 3.1224594153 2.9473291268 2.9473291268 
2.9619233175 2.9619233175 2.9765175082 2.9765175082 2.991111699 2.991111699 3.0057058897 3.0057058897 3.0203000804 
3.0203000804 3.0348942711 3.0348942711 3.0494884618 3.0494884618 3.0640826525 3.0640826525 3.0786768432 3.0786768432 
3.0932710339 3.0932710339 3.1078652246 3.1078652246 3.1224594153 3.1224594153 3.137053606 2.9473291268 2.9619233175 
2.9765175082 2.991111699 3.0057058897 3.0203000804 3.0348942711 3.0494884618 3.0640826525 3.0786768432 3.0932710339 
3.1078652246 3.1224594153 3.137053606 2.9473291268 2.9619233175 2.9765175082 2.991111699 3.0057058897 3.0203000804 
3.0348942711 3.0494884618 3.0640826525 3.0786768432 3.0932710339 3.1078652246 3.1224594153 3.137053606 2.9473291268 
2.9619233175 2.9765175082 2.991111699 3.0057058897 3.0203000804 3.0348942711 3.0494884618 3.0640826525 3.0786768432 
3.0932710339 3.1078652246 3.1224594153 3.137053606 2.9473291268 2.9619233175 2.9765175082 2.991111699 3.0057058897 
3.0203000804 3.0348942711 3.0494884618 3.0640826525 3.0786768432 3.0932710339 3.1078652246 3.1224594153 3.137053606 
2.9473291268 2.9619233175 2.9765175082 2.991111699 3.0057058897 3.0203000804 3.0348942711 3.0494884618 3.0640826525 
3.0786768432 3.0932710339 3.1078652246 3.1224594153 3.137053606 2.9473291268 2.9619233175 2.9765175082 2.991111699 
3.0057058897 3.0203000804 3.0348942711 3.0494884618 3.0640826525 3.0786768432 3.0932710339 3.1078652246 3.1224594153 
3.137053606 2.9473291268 2.9619233175 2.9765175082 2.991111699 3.0057058897 3.0203000804 3.0348942711 3.0494884618 
3.0640826525 3.0786768432 3.0932710339 3.1078652246 3.1224594153 3.137053606 2.9473291268 2.9619233175 2.9765175082 
2.991111699 3.0057058897 3.0203000804 3.0348942711 3.0494884618 3.0640826525 3.0786768432 3.0932710339 3.1078652246 
3.1224594153 3.137053606 2.9473291268 2.9619233175 2.9765175082 2.991111699 3.0057058897 3.0203000804 3.0348942711 
3.0494884618 3.0640826525 3.0786768432 3.0932710339 3.1078652246 3.1224594153 3.137053606 3.137053606 3.137053606 
3.1224594153 3.1078652246 3.0932710339 3.0786768432 3.0640826525 3.0640826525 3.0786768432 3.0786768432 3.0786768432 
3.0640826525 3.0494884618 3.0348942711 3.0203000804 3.0203000804 3.0203000804 3.0203000804 3.0348942711 3.0494884618 
3.0640826525 3.0786768432 3.0932710339 3.1078652246 2.9473291268 2.9473291268 2.9619233175 2.9619233175 2.9765175082 
2.9765175082 2.991111699 2.991111699 3.0057058897 3.0057058897 3.0203000804 3.0203000804 3.0348942711 3.0348942711 
3.0494884618 3.0494884618 3.0640826525 3.0640826525 3.0786768432 3.0786768432 3.0932710339 3.0932710339 3.1078652246 
3.1078652246 2.9473291268 2.9619233175 2.9765175082 2.991111699 3.0057058897 3.0203000804 3.0348942711 3.0494884618 
3.0640826525 3.0786768432 3.0932710339 3.1078652246 2.9473291268 2.9619233175 2.9765175082 2.991111699 3.0057058897 