# vtk DataFile Version 4.2
vtk output
ASCII
DATASET POLYDATA
POINTS 6512 float
2602.94 -2496.1 5800 2609.9 -2500.78 5800 2638.9 -2499.94 5800 
2643.1 -2496.1 5800 2583.59 -2483.1 5800 2657.35 -2483.1 5800 
2564.24 -2470.1 5800 2580.9 -2481.29 5800 2667.9 -2473.48 5800 
2671.61 -2470.1 5800 2544.9 -2457.1 5800 2551.9 -2461.8 5800 
2685.86 -2457.1 5800 2525.55 -2444.1 5800 2696.9 -2447.02 5800 
2700.14 -2444.09 5800 2506.21 -2431.1 5800 2522.9 -2442.32 5800 
2715.09 -2431.09 5800 2486.86 -2418.1 5800 2493.9 -2422.83 5800 
2725.91 -2422.17 5800 2730.96 -2418.09 5800 2467.52 -2405.1 5800 
2747.06 -2405.09 5800 2448.17 -2392.1 5800 2464.9 -2403.34 5800 
2754.91 -2398.75 5800 2763.17 -2392.09 5800 2431.14 -2379.1 5800 
2435.9 -2383.85 5800 2779.27 -2379.09 5800 2415.85 -2366.1 5800 
2783.91 -2375.34 5800 2795.38 -2366.09 5800 2399.76 -2353.1 5800 
2406.9 -2359.78 5800 2811.49 -2353.08 5800 2384.9 -2340.1 5800 
2812.92 -2351.93 5800 2827.59 -2340.08 5800 2369.52 -2327.1 5800 
2377.9 -2334.1 5800 2841.92 -2328.52 5800 2843.7 -2327.08 5800 
2356.1 -2314.1 5800 2859.8 -2314.08 5800 2342.69 -2301.1 5800 
2348.9 -2307.12 5800 2870.92 -2305.11 5800 2875.91 -2301.08 5800 
2329.27 -2288.1 5800 2892.02 -2288.08 5800 2315.86 -2275.1 5800 
2319.9 -2279.02 5800 2899.92 -2281.69 5800 2908.12 -2275.07 5800 
2302.45 -2262.09 5800 2924.23 -2262.07 5800 2289.03 -2249.09 5800 
2290.91 -2250.91 5800 2928.93 -2258.28 5800 2940.33 -2249.07 5800 
2275.62 -2236.09 5800 2956.44 -2236.07 5800 2262.2 -2223.09 5800 
2957.93 -2234.87 5800 2970.9 -2223.07 5800 2248.79 -2210.09 5800 
2261.91 -2222.81 5800 2985.76 -2210.07 5800 2235.37 -2197.09 5800 
2986.93 -2209.06 5800 2999.96 -2197.07 5800 2227.14 -2184.09 5800 
2232.91 -2194.7 5800 3014.08 -2184.06 5800 2223.04 -2171.09 5800 
3015.94 -2182.36 5800 3028.2 -2171.06 5800 2220.48 -2158.09 5800 
3042.32 -2158.06 5800 2220.91 -2145.09 5800 3044.94 -2148.4 5800 
3045.43 -2145.06 5800 2221.91 -2132.09 5800 3046.63 -2132.06 5800 
2222.91 -2119.09 5800 3047.83 -2119.06 5800 2223.91 -2106.09 5800 
3049.03 -2106.06 5800 2224.91 -2093.08 5800 3050.23 -2093.06 5800 
2225.91 -2080.08 5800 3051.43 -2080.05 5800 2226.37 -2067.08 5800 
3052.25 -2067.05 5800 2224.63 -2054.08 5800 3053.01 -2054.05 5800 
2222.81 -2041.08 5800 3053.67 -2041.05 5800 2220.99 -2028.08 5800 
3054.34 -2028.05 5800 2219.18 -2015.08 5800 3055 -2015.05 5800 
2217.36 -2002.08 5800 3055.67 -2002.05 5800 2215.54 -1989.08 5800 
3056.34 -1989.05 5800 2213.72 -1976.08 5800 3057 -1976.05 5800 
2211.91 -1963.07 5800 3057.67 -1963.05 5800 2210.09 -1950.07 5800 
3058.33 -1950.04 5800 2208.27 -1937.07 5800 3059 -1937.04 5800 
2206.45 -1924.07 5800 3059.66 -1924.04 5800 2204.64 -1911.07 5800 
3060.33 -1911.04 5800 2202.82 -1898.07 5800 2203.93 -1906.01 5800 
3060.99 -1898.04 5800 2201 -1885.07 5800 3061.66 -1885.04 5800 
2199.19 -1872.07 5800 3062.32 -1872.04 5800 2197.37 -1859.07 5800 
3062.99 -1859.04 5800 2195.55 -1846.07 5800 3063.65 -1846.04 5800 
2193.73 -1833.07 5800 3064.32 -1833.04 5800 2191.92 -1820.06 5800 
3064.98 -1820.03 5800 2190.1 -1807.06 5800 3065.65 -1807.03 5800 
2188.28 -1794.06 5800 3066.31 -1794.03 5800 2185.49 -1781.06 5800 
3066.98 -1781.03 5800 2182.89 -1768.06 5800 3067.65 -1768.03 5800 
2180.79 -1755.06 5800 3068.31 -1755.03 5800 2179.06 -1742.06 5800 
3068.98 -1742.03 5800 2177.59 -1729.06 5800 3070.98 -1729.03 5800 
2176.35 -1716.06 5800 3072.34 -1716.03 5800 2175.27 -1703.06 5800 
3073.97 -1713.93 5800 3084.81 -1703.02 5800 2173.74 -1690.06 5800 
2174.94 -1698.69 5800 3092.82 -1690.02 5800 2170.85 -1677.05 5800 
3102.98 -1677.35 5800 3103.26 -1677.02 5800 2166.55 -1664.05 5800 
3113.66 -1664.02 5800 2163.1 -1651.05 5800 3124.09 -1651.02 5800 
2160.28 -1638.05 5800 3131.98 -1641.18 5800 3134.51 -1638.02 5800 
2157.93 -1625.05 5800 3144.94 -1625.02 5800 2155.94 -1612.05 5800 
3155.36 -1612.02 5800 2154.23 -1599.05 5800 3160.99 -1605 5800 
3165.79 -1599.01 5800 2152.74 -1586.05 5800 3176.21 -1586.01 5800 
2151.45 -1573.05 5800 3186.64 -1573.01 5800 2148.73 -1560.05 5800 
3189.99 -1568.83 5800 3197.06 -1560.01 5800 2146.05 -1547.05 5800 
3205.91 -1547.01 5800 2142.5 -1534.04 5800 2145.96 -1546.59 5800 
3212.13 -1534.01 5800 2140.63 -1521.04 5800 3218.35 -1521.01 5800 
2136.03 -1508.04 5800 3218.99 -1519.67 5800 3223.31 -1508 5800 
2133 -1495.04 5800 3226.98 -1495 5800 2132.64 -1482.04 5800 
3229.83 -1482 5800 2132.71 -1469.04 5800 3232.12 -1469 5800 
2132.36 -1456.04 5800 3233.26 -1456 5800 2131.6 -1443.04 5800 
3233.71 -1443 5800 2130.84 -1430.04 5800 3234.16 -1430 5800 
2130.09 -1417.04 5800 3234.62 -1417 5800 2129.33 -1404.03 5800 
3235.07 -1404 5800 2128.57 -1391.03 5800 3235.52 -1391 5800 
2127.81 -1378.03 5800 3235.97 -1377.99 5800 2127.06 -1365.03 5800 
3236.43 -1364.99 5800 2126.3 -1352.03 5800 3236.88 -1351.99 5800 
2125.54 -1339.03 5800 3237.33 -1338.99 5800 2124.79 -1326.03 5800 
3237.78 -1325.99 5800 2124.03 -1313.03 5800 3238.24 -1312.99 5800 
2123.27 -1300.03 5800 3238.69 -1299.99 5800 2122.52 -1287.03 5800 
3239.19 -1286.99 5800 2121.8 -1274.02 5800 3239.71 -1273.99 5800 
2121.13 -1261.02 5800 3240.22 -1260.99 5800 2120.46 -1248.02 5800 
3240.72 -1247.98 5800 2119.8 -1235.02 5800 3241.21 -1234.98 5800 
2119.14 -1222.02 5800 3241.7 -1221.98 5800 2118.49 -1209.02 5800 
3242.18 -1208.98 5800 2117.84 -1196.02 5800 3242.65 -1195.98 5800 
2117.19 -1183.02 5800 3243.13 -1182.98 5800 2116.54 -1170.02 5800 
2116.98 -1178.93 5800 3243.78 -1169.98 5800 2115.89 -1157.02 5800 
3244.42 -1156.98 5800 2115.24 -1144.02 5800 3245.07 -1143.98 5800 
2114.59 -1131.01 5800 3245.71 -1130.98 5800 2113.94 -1118.01 5800 
3246.36 -1117.97 5800 2113.29 -1105.01 5800 3247.02 -1104.97 5800 
2112.65 -1092.01 5800 3248.03 -1095.17 5800 3248.36 -1091.97 5800 
2109.97 -1079.01 5800 3249.72 -1078.97 5800 2107.2 -1066.01 5800 
3251.17 -1065.97 5800 2104.43 -1053.01 5800 3252.67 -1052.97 5800 
2101.66 -1040.01 5800 3254.17 -1039.97 5800 2098.89 -1027.01 5800 
3255.67 -1026.97 5800 2096.12 -1014.01 5800 3257.17 -1013.97 5800 
2094.62 -1001 5800 3258.67 -1000.96 5800 2096.25 -988.004 5800 
3260.18 -987.964 5800 2097.22 -975.003 5800 3261.68 -974.963 5800 
2099.22 -962.002 5800 3263.18 -961.961 5800 2101.5 -949.001 5800 
3264.68 -948.96 5800 2103.8 -935.999 5800 3266.18 -935.959 5800 
2106.1 -922.998 5800 3267.52 -922.958 5800 2108.41 -909.997 5800 
3266.03 -909.957 5800 2110.73 -896.996 5800 3264.9 -896.956 5800 
2113.07 -883.995 5800 3263.65 -883.955 5800 2115.41 -870.994 5800 
2562.6 -870.979 5800 2581.02 -878.07 5800 2609 -870.977 5800 
3261.36 -870.955 5800 2117.01 -862.165 5800 2117.72 -857.993 5800 
2539.76 -857.978 5800 2552.02 -866.763 5800 2610.02 -870.718 5800 
2639.02 -862.882 5800 2653.56 -857.974 5800 3259.07 -857.954 5800 
2119.93 -844.992 5800 2521.77 -844.978 5800 2523.02 -845.987 5800 
2668.03 -853.087 5800 2697.03 -845.641 5800 2726.03 -847.828 5800 
2729.5 -844.971 5800 3256.79 -844.953 5800 2122.15 -831.991 5800 
2505.7 -831.978 5800 2743.1 -831.969 5800 3254.5 -831.952 5800 
2124.31 -818.99 5800 2489.95 -818.977 5800 2494.02 -822.489 5800 
2753.93 -818.968 5800 3252.22 -818.951 5800 2126.49 -805.989 5800 
2474.86 -805.977 5800 2755.03 -817.484 5800 2761.99 -805.967 5800 
3249.93 -805.95 5800 2128.67 -792.988 5800 2454.23 -792.976 5800 
2465.02 -798.95 5800 2773.81 -792.965 5800 3248.05 -797.891 5800 
3246.87 -792.949 5800 2130.14 -779.987 5800 2434.23 -779.976 5800 
2436.02 -782.676 5800 2784.04 -783.637 5800 2788.06 -779.964 5800 
3243.7 -779.948 5800 2130.5 -766.986 5800 2427.06 -766.975 5800 
2802.31 -766.962 5800 3241.07 -766.947 5800 2129.16 -753.985 5800 
2419.9 -753.975 5800 2813.04 -757.179 5800 2816.99 -753.961 5800 
3239.01 -753.946 5800 2127.67 -740.984 5800 2412.73 -740.974 5800 
2833.66 -740.959 5800 3237.3 -740.945 5800 2126.14 -727.983 5800 
2405.45 -727.973 5800 2407.03 -730.625 5800 2842.04 -734.547 5800 
2850.65 -727.958 5800 3235.85 -727.944 5800 2124.61 -714.982 5800 
2398.26 -714.972 5800 2867.05 -714.956 5800 3234.61 -714.943 5800 
2123.08 -701.981 5800 2391.17 -701.972 5800 2871.04 -709.991 5800 
2874.37 -701.955 5800 3234.51 -701.942 5800 2121.55 -688.98 5800 
2383.91 -688.971 5800 2879.75 -688.954 5800 3234.45 -688.941 5800 
2122.77 -675.979 5800 2376.39 -675.97 5800 2378.03 -678.43 5800 
2885.14 -675.953 5800 3234.39 -675.94 5800 2125.41 -662.978 5800 
2368.34 -662.969 5800 2890.55 -662.951 5800 3234.33 -662.94 5800 
2128.46 -649.977 5800 2361.22 -649.969 5800 2896.13 -649.95 5800 
3234.26 -649.938 5800 2131.49 -636.976 5800 2354.87 -636.968 5800 
2900.05 -640.938 5800 2901.83 -636.949 5800 3234.19 -636.938 5800 
2134.46 -623.974 5800 2345.17 -623.967 5800 2349.03 -630.238 5800 
2907.63 -623.948 5800 3234.12 -623.936 5800 2137.47 -610.973 5800 
2338.82 -610.966 5800 2913.43 -610.947 5800 3234.06 -610.935 5800 
2140.53 -597.972 5800 2332.69 -597.966 5800 2920.41 -597.945 5800 
3233.99 -597.935 5800 2143.63 -584.971 5800 2325.95 -584.965 5800 
2928.73 -584.944 5800 3233.92 -584.933 5800 2142.24 -571.97 5800 
2319.17 -571.964 5800 2320.04 -573.666 5800 2929.06 -584.433 5800 
2936.17 -571.943 5800 3235.03 -571.932 5800 2140.64 -558.969 5800 
2312.53 -558.963 5800 2943.17 -558.942 5800 3236.62 -558.931 5800 
2139.59 -545.968 5800 2306.03 -545.962 5800 2949.84 -545.94 5800 
3238.22 -545.93 5800 2138.16 -532.967 5800 2299.8 -532.962 5800 
2574.86 -532.952 5800 2581.05 -535.387 5800 2586.77 -532.952 5800 
2956.07 -532.939 5800 3239.81 -532.929 5800 1740.02 -520.622 5800 
1733.02 -519.98 5800 1769.02 -523.298 5800 1798.02 -520.193 5800 
1799.36 -519.978 5800 2136.27 -519.966 5800 2293.6 -519.961 5800 
2539.25 -519.952 5800 2552.05 -525.032 5800 2610.05 -521.961 5800 
2613.97 -519.95 5800 2958.06 -528.661 5800 2962.33 -519.938 5800 
3241.41 -519.928 5800 1595.02 -507.331 5800 1593.78 -506.984 5800 
1624.02 -509.989 5800 1653.02 -512.648 5800 1682.02 -515.306 5800 
1711.02 -517.964 5800 1827.02 -515.529 5800 1856.03 -507.063 5800 
1856.13 -506.975 5800 2136.21 -506.965 5800 2287.26 -506.96 5800 
[...]
POINT_DATA 6512
SCALARS Pressure double
LOOKUP_TABLE default
3.0932710339 3.0932710339 3.0932710339 3.0932710339 3.0932710339 3.0932710339 3.0932710339 3.0932710339 3.0932710339 
3.0932710339 3.0932710339 3.0932710339 3.0932710339 3.0932710339 3.0932710339 3.0932710339 3.0932710339 3.0932710339 
3.0932710339 3.0932710339 3.0932710339 3.0932710339 3.0932710339 3.0932710339 3.0932710339 3.0932710339 3.0932710339 
3.0932710339 3.0932710339 3.0932710339 3.0932710339 3.0932710339 3.0932710339 3.0932710339 3.0932710339 3.0932710339 
3.0932710339 3.0932710339 3.0932710339 3.0932710339 3.0932710339 3.0932710339 3.0932710339 3.0932710339 3.0932710339 
3.0932710339 3.0932710339 3.0932710339 3.0932710339 3.0932710339 3.0932710339 3.0932710339 3.0932710339 3.0932710339 
3.0932710339 3.0932710339 3.0932710339 3.0932710339 3.0932710339 3.0932710339 3.0932710339 3.0932710339 3.0932710339 
3.0932710339 3.0932710339 3.0932710339 3.0932710339 3.0932710339 3.0932710339 3.0932710339 3.0932710339 3.0932710339 
3.0932710339 3.0932710339 3.0932710339 3.0932710339 3.0932710339 3.0932710339 3.0932710339 3.0932710339 3.0932710339 
3.0932710339 3.0932710339 3.0932710339 3.0932710339 3.0932710339 3.0932710339 3.0932710339 3.0932710339 3.0932710339 
3.0932710339 3.0932710339 3.0932710339 3.0932710339 3.0932710339 3.0932710339 3.0932710339 3.0932710339 3.0932710339 
3.0932710339 3.0932710339 3.0932710339 3.0932710339 3.0932710339 3.0932710339 3.0932710339 3.0932710339 3.0932710339 
3.0932710339 3.0932710339 3.0932710339 3.0932710339 3.0932710339 3.0932710339 3.0932710339 3.0932710339 3.0932710339 
3.0932710339 3.0932710339 3.0932710339 3.0932710339 3.0932710339 3.0932710339 3.0932710339 3.0932710339 3.0932710339 
3.0932710339 3.0932710339 3.0932710339 3.0932710339 3.0932710339 3.0932710339 3.0932710339 3.0932710339 3.0932710339 
3.0932710339 3.0932710339 3.0932710339 3.0932710339 3.0932710339 3.0932710339 3.0932710339 3.0932710339 3.0932710339 
3.0932710339 3.0932710339 3.0932710339 3.0932710339 3.0932710339 3.0932710339 3.0932710339 3.0932710339 3.0932710339 
3.0932710339 3.0932710339 3.0932710339 3.0932710339 3.0932710339 3.0932710339 3.0932710339 3.0932710339 3.0932710339 
3.0932710339 3.0932710339 3.0932710339 3.0932710339 3.0932710339 3.0932710339 3.0932710339 3.0932710339 3.0932710339 
3.0932710339 3.0932710339 3.0932710339 3.0932710339 3.0932710339 3.0932710339 3.0932710339 3.0932710339 3.0932710339 
3.0932710339 3.0932710339 3.0932710339 3.0932710339 3.0932710339 3.0932710339 3.0932710339 3.0932710339 3.0932710339 
3.0932710339 3.0932710339 3.0932710339 3.0932710339 3.0932710339 3.0932710339 3.0932710339 3.0932710339 3.0932710339 
3.0932710339 3.0932710339 3.0932710339 3.0932710339 3.0932710339 3.0932710339 3.0932710339 3.0932710339 3.0932710339 
3.0932710339 3.0932710339 3.0932710339 3.0932710339 3.0932710339 3.0932710339 3.0932710339 3.0932710339 3.0932710339 
3.0932710339 3.0932710339 3.0932710339 3.0932710339 3.0932710339 3.0932710339 3.0932710339 3.0932710339 3.0932710339 
3.0932710339 3.0932710339 3.0932710339 3.0932710339 3.0932710339 3.0932710339 3.0932710339 3.0932710339 3.0932710339 
3.0932710339 3.0932710339 3.0932710339 3.0932710339 3.0932710339 3.0932710339 3.0932710339 3.0932710339 3.0932710339 
3.0932710339 3.0932710339 3.0932710339 3.0932710339 3.0932710339 3.0932710339 3.0932710339 3.0932710339 3.0932710339 
3.0932710339 3.0932710339 3.0932710339 3.0932710339 3.0932710339 3.0932710339 3.0932710339 3.0932710339 3.0932710339 
3.0932710339 3.0932710339 3.0932710339 3.0932710339 3.0932710339 3.0932710339 3.0932710339 3.0932710339 3.0932710339 
3.0932710339 3.0932710339 3.0932710339 3.0932710339 3.0932710339 3.0932710339 3.0932710339 3.0932710339 3.0932710339 
3.0932710339 3.0932710339 3.0932710339 3.0932710339 3.0932710339 3.0932710339 3.0932710339 3.0932710339 3.0932710339 
3.0932710339 3.0932710339 3.0932710339 3.1078652246 3.1078652246 3.1078652246 3.0932710339 3.0932710339 3.0932710339 
3.1078652246 3.1078652246 3.1078652246 3.1078652246 3.1078652246 3.0932710339 3.0932710339 3.1078652246 3.1078652246 
3.1078652246 3.1078652246 3.1078652246 3.1078652246 3.0932710339 3.0932710339 3.1078652246 3.1078652246 3.0932710339 
3.0932710339 3.1078652246 3.1078652246 3.1078652246 3.0932710339 3.0932710339 3.1078652246 3.1078652246 3.1078652246 
3.0932710339 3.0932710339 3.1078652246 3.1078652246 3.1078652246 3.0932710339 3.0932710339 3.0932710339 3.1078652246 
3.1078652246 3.1078652246 3.1078652246 3.0932710339 3.0932710339 3.1078652246 3.1078652246 3.0932710339 3.0932710339 
3.1078652246 3.1078652246 3.1078652246 3.0932710339 3.0932710339 3.1078652246 3.1078652246 3.0932710339 3.0932710339 
3.1078652246 3.1078652246 3.1078652246 3.1078652246 3.0932710339 3.0932710339 3.1078652246 3.1078652246 3.0932710339 
3.0932710339 3.1078652246 3.1078652246 3.1078652246 3.0932710339 3.0932710339 3.1078652246 3.1078652246 3.0932710339 
3.0932710339 3.1078652246 3.1078652246 3.1078652246 3.0932710339 3.0932710339 3.1078652246 3.1078652246 3.0932710339 
3.0932710339 3.1078652246 3.1078652246 3.0932710339 3.0932710339 3.1078652246 3.1078652246 3.1078652246 3.0932710339 
3.0932710339 3.1078652246 3.1078652246 3.1078652246 3.0932710339 3.0932710339 3.1078652246 3.1078652246 3.0932710339 
3.0932710339 3.1078652246 3.1078652246 3.0932710339 3.0932710339 3.1078652246 3.1078652246 3.0932710339 3.0932710339 
3.1078652246 3.1078652246 3.1078652246 3.1078652246 3.0932710339 3.0932710339 3.1078652246 3.1078652246 3.0932710339 
3.0932710339 3.1078652246 3.1078652246 3.0932710339 3.0932710339 3.1078652246 3.1224594153 3.1224594153 3.1224594153 
3.1078652246 3.0932710339 3.0786768432 3.0786768432 3.0786768432 3.0786768432 3.0786768432 3.0932710339 3.1078652246 
3.1224594153 3.1224594153 3.1224594153 3.1224594153 3.1078652246 3.1078652246 3.0932710339 3.0786768432 3.0786768432 
3.0786768432 3.0786768432 3.0786768432 3.0786768432 3.0786768432 3.0786768432 3.0786768432 3.0932710339 3.1078652246 
3.1078652246 3.1224594153 3.1224594153 3.1224594153 3.1224594153 3.1078652246 3.0932710339 3.0786768432 3.0786768432 
3.0786768432 3.0786768432 3.0786768432 3.0786768432 3.0932710339 3.1078652246 3.1224594153 3.1224594153 3.1224594153 
3.1078652246 3.0932710339 3.0786768432 3.0786768432 3.0786768432 3.0786768432 3.0786768432 3.0786768432 3.0786768432 
3.0932710339 3.1078652246 3.1224594153 3.1224594153 3.1224594153 3.1224594153 3.1078652246 3.0932710339 3.0786768432 
3.0786768432 3.0786768432 3.0786768432 3.0786768432 3.0932710339 3.1078652246 3.1224594153 3.1224594153 3.1224594153 
3.1078652246 3.0932710339 3.0786768432 3.0786768432 3.0786768432 3.0786768432 3.0786768432 3.0786768432 3.0786768432 
3.0932710339 3.1078652246 3.1224594153 3.1224594153 3.1224594153 3.1078652246 3.1078652246 3.0932710339 3.0932710339 
3.0786768432 3.0786768432 3.0786768432 3.0786768432 3.0786768432 3.0786768432 3.0932710339 3.1078652246 3.1224594153 
3.1224594153 3.1224594153 3.1078652246 3.0932710339 3.0786768432 3.0786768432 3.0786768432 3.0786768432 3.0786768432 
3.0932710339 3.1078652246 3.1224594153 3.1224594153 3.1224594153 3.1078652246 3.0932710339 3.0786768432 3.0786768432 
3.0786768432 3.0786768432 3.0786768432 3.0786768432 3.0932710339 3.0932710339 3.1078652246 3.1078652246 3.1224594153 
3.1224594153 3.1224594153 3.1078652246 3.0932710339 3.0786768432 3.0786768432 3.0786768432 3.0786768432 3.0786768432 
3.0932710339 3.1078652246 3.1224594153 3.1224594153 3.1078652246 3.1078652246 3.0932710339 3.0786768432 3.0786768432 
3.0786768432 3.0786768432 3.0786768432 3.0932710339 3.1078652246 3.1224594153 3.1224594153 3.1224594153 3.1078652246 
3.0932710339 3.0786768432 3.0786768432 3.0786768432 3.0786768432 3.0786768432 3.0786768432 3.0786768432 3.0932710339 
3.1078652246 3.1224594153 3.1224594153 3.1224594153 3.1078652246 3.0932710339 3.0786768432 3.0786768432 3.0786768432 
3.0786768432 3.0786768432 3.0932710339 3.1078652246 3.1224594153 3.1224594153 3.1078652246 3.0932710339 3.0786768432 
3.0786768432 3.0786768432 3.0786768432 3.0786768432 3.0932710339 3.1078652246 3.1224594153 3.1224594153 3.1224594153 
3.1078652246 3.0932710339 3.0786768432 3.0786768432 3.0786768432 3.0786768432 3.0786768432 3.0786768432 3.0932710339 
3.1078652246 3.1224594153 3.1224594153 3.1224594153 3.1078652246 3.0932710339 3.0786768432 3.0786768432 3.0786768432 
3.0786768432 3.0932710339 3.1078652246 3.1224594153 3.137053606 3.137053606 3.137053606 3.137053606 3.137053606 
3.1224594153 3.1078652246 3.1078652246 3.0932710339 3.0786768432 3.0786768432 3.0786768432 3.0786768432 3.0786768432 
3.0932710339 3.1078652246 3.1224594153 3.137053606 3.137053606 3.137053606 3.1224594153 3.1078652246 3.0932710339 
3.0786768432 3.0786768432 3.0786768432 3.0786768432 3.0786768432 3.0786768432 3.0932710339 3.1078652246 3.1224594153 
3.1224594153 3.137053606 3.137053606 3.137053606 3.137053606 3.1224594153 3.1078652246 3.0932710339 3.0786768432 
3.0786768432 3.0786768432 3.0786768432 3.0786768432 3.0932710339 3.1078652246 3.1224594153 3.137053606 3.137053606 
3.137053606 3.137053606 3.1224594153 3.1224594153 3.1078652246 3.0932710339 3.0786768432 3.0786768432 3.0786768432 
3.0786768432 3.0786768432 3.0932710339 3.1078652246 3.1078652246 3.1224594153 3.137053606 3.137053606 3.1224594153 
3.1078652246 3.0932710339 3.0786768432 3.0786768432 3.0786768432 3.0786768432 3.0786768432 3.0932710339 3.1078652246 
3.1224594153 3.137053606 3.137053606 3.137053606 3.1224594153 3.1078652246 3.0932710339 3.0786768432 3.0786768432 
3.0786768432 3.0786768432 3.0786768432 3.0932710339 3.1078652246 3.1224594153 3.1224594153 3.137053606 3.137053606 
3.137053606 3.1224594153 3.1078652246 3.0932710339 3.0786768432 3.0786768432 3.0786768432 3.0786768432 3.0932710339 
3.1078652246 3.1224594153 3.137053606 3.137053606 3.137053606 3.1224594153 3.1078652246 3.0932710339 3.0786768432 
3.0786768432 3.0786768432 3.0640826525 3.0640826525 3.0640826525 3.0786768432 3.0932710339 3.1078652246 3.1224594153 
3.137053606 3.137053606 3.1224594153 3.1224594153 3.1078652246 3.0932710339 3.0786768432 3.0786768432 3.0786768432 
3.0786768432 3.0786768432 3.0640826525 3.0640826525 3.0640826525 3.0640826525 3.0640826525 3.0640826525 3.0640826525 
3.0786768432 3.0932710339 3.1078652246 3.1224594153 3.137053606 3.137053606 3.137053606 3.137053606 3.1224594153 
3.1078652246 3.0932710339 3.0786768432 3.0786768432 3.0786768432 3.0640826525 3.0640826525 3.0640826525 3.0786768432 
3.0932710339 3.1078652246 3.1224594153 3.137053606 3.137053606 3.1224594153 3.1078652246 3.0932710339 3.0786768432 
3.0786768432 3.0786768432 3.0640826525 3.0640826525 3.0640826525 3.0786768432 3.0932710339 3.1078652246 3.1224594153 
3.1224594153 3.137053606 3.137053606 3.1224594153 3.1078652246 3.0932710339 3.0786768432 3.0786768432 3.0786768432 
3.0786768432 3.0640826525 3.0640826525 3.0640826525 3.0786768432 3.0932710339 3.1078652246 3.1078652246 3.1224594153 
3.137053606 3.137053606 3.1516477967 3.1516477967 3.1516477967 3.1516477967 3.1516477967 3.1516477967 3.137053606 
3.1224594153 3.1078652246 3.0932710339 3.0786768432 3.0786768432 3.0786768432 3.0640826525 3.0640826525 3.0640826525 
3.0786768432 3.0932710339 3.1078652246 3.1224594153 3.137053606 3.1516477967 3.1516477967 3.1516477967 3.1516477967 
3.137053606 3.1224594153 3.1078652246 3.0932710339 3.0786768432 3.0786768432 3.0786768432 3.0786768432 3.0640826525 
3.0640826525 3.0786768432 3.0786768432 3.0932710339 3.1078652246 3.1224594153 3.137053606 3.137053606 3.1516477967 
3.1516477967 3.1516477967 3.137053606 3.1224594153 3.1078652246 3.0932710339 3.0786768432 3.0786768432 3.0786768432 
3.0786768432 3.0786768432 3.0786768432 3.0786768432 3.0640826525 3.0640826525 3.0786768432 3.0932710339 3.1078652246 
3.1224594153 3.1224594153 3.137053606 3.1516477967 3.1516477967 3.1516477967 3.137053606 3.1224594153 3.1078652246 
3.0932710339 3.0786768432 3.0786768432 3.0786768432 3.0786768432 3.0786768432 3.0786768432 3.0640826525 3.0494884618 
3.0494884618 3.0494884618 3.0494884618 3.0640826525 3.0786768432 3.0932710339 3.1078652246 3.1224594153 3.137053606 
3.1516477967 3.1516477967 3.1516477967 3.137053606 3.1224594153 3.1078652246 3.0932710339 3.0786768432 3.0786768432 
3.0786768432 3.0786768432 3.0786768432 3.0640826525 3.0640826525 3.0494884618 3.0494884618 3.0494884618 3.0494884618 
3.0640826525 3.0640826525 3.0786768432 3.0932710339 3.1078652246 3.1224594153 3.137053606 3.137053606 3.1516477967 
3.1516477967 3.137053606 3.1224594153 3.1078652246 3.0932710339 3.0786768432 3.0786768432 3.0786768432 3.0786768432 
3.0640826525 3.0494884618 3.0494884618 3.0494884618 3.0640826525 3.0786768432 3.0932710339 3.1078652246 3.1224594153 
3.137053606 3.1516477967 3.1516477967 3.1516477967 3.137053606 3.1224594153 3.1078652246 3.0932710339 3.0932710339 
3.0786768432 3.0640826525 3.0640826525 3.0640826525 3.0640826525 3.0640826525 3.0786768432 3.0786768432 3.0640826525 
3.0494884618 3.0494884618 3.0494884618 3.0640826525 3.0786768432 3.0932710339 3.1078652246 3.1078652246 3.1224594153 
3.1224594153 3.137053606 3.1516477967 3.1516477967 3.137053606 3.1224594153 3.1078652246 3.0932710339 3.0786768432 
3.0786768432 3.0640826525 3.0640826525 3.0640826525 3.0640826525 3.0786768432 3.0786768432 3.0786768432 3.0640826525 
3.0494884618 3.0348942711 3.0348942711 3.0348942711 3.0494884618 3.0640826525 3.0786768432 3.0932710339 3.0932710339 
3.1078652246 3.1224594153 3.137053606 3.1516477967 3.1516477967 3.1516477967 3.137053606 3.1224594153 3.1078652246 
3.0932710339 3.0786768432 3.0640826525 3.0640826525 3.0786768432 3.0786768432 3.0786768432 3.0640826525 3.0494884618 
3.0348942711 3.0348942711 3.0348942711 3.0348942711 3.0494884618 3.0494884618 3.0640826525 3.0786768432 3.0932710339 
3.1078652246 3.1224594153 3.137053606 3.137053606 2.9619233175 2.9619233175 2.9765175082 2.9765175082 2.991111699 
2.991111699 3.0057058897 3.0057058897 3.0203000804 3.0203000804 3.0348942711 3.0348942711 3.0494884618 3.0494884618 
3.0640826525 3.0640826525 3.0786768432 3.0786768432 3.0932710339 3.0932710339 3.1078652246 3.1078652246 3.1224594153 
3.1224594153 3.137053606 3.137053606 2.9619233175 2.9765175082 2.991111699 3.0057058897 3.0203000804 3.0348942711 
3.0494884618 3.0640826525 3.0786768432 3.0932710339 3.1078652246 3.1224594153 3.137053606 3.1516477967 2.9619233175 
2.9765175082 2.991111699 3.0057058897 3.0203000804 3.0348942711 3.0494884618 3.0640826525 3.0786768432 3.0932710339 
3.1078652246 3.1224594153 3.137053606 3.1516477967 2.9619233175 2.9765175082 2.991111699 3.0057058897 3.0203000804 
3.0348942711 3.0494884618 3.0640826525 3.0786768432 3.0932710339 3.1078652246 3.1224594153 3.137053606 3.1516477967 
2.9619233175 2.9765175082 2.991111699 3.0057058897 3.0203000804 3.0348942711 3.0494884618 3.0640826525 3.0786768432 
3.0932710339 3.1078652246 3.1224594153 3.137053606 3.1516477967 2.9619233175 2.9765175082 2.991111699 3.0057058897 
3.0203000804 3.0348942711 3.0494884618 3.0640826525 3.0786768432 3.0932710339 3.1078652246 3.1224594153 3.137053606 
3.1516477967 2.9619233175 2.9765175082 2.991111699 3.0057058897 3.0203000804 3.0348942711 3.0494884618 3.0640826525 
3.0786768432 3.0932710339 3.1078652246 3.1224594153 3.137053606 3.1516477967 2.9619233175 2.9765175082 2.991111699 
3.0057058897 3.0203000804 3.0348942711 3.0494884618 3.0640826525 3.0786768432 3.0932710339 3.1078652246 3.1224594153 
3.137053606 3.1516477967 2.9619233175 2.9765175082 2.991111699 3.0057058897 3.0203000804 3.0348942711 3.0494884618 
3.0640826525 3.0786768432 3.0932710339 3.1078652246 3.1224594153 3.137053606 3.1516477967 2.9619233175 2.9765175082 
2.991111699 3.0057058897 3.0203000804 3.0348942711 3.0494884618 3.0640826525 3.0786768432 3.0932710339 3.1078652246 
3.1224594153 3.137053606 3.1516477967 2.9619233175 2.9765175082 2.991111699 3.0057058897 3.0203000804 3.0348942711 
3.0494884618 3.0640826525 3.0786768432 3.0932710339 3.1078652246 3.1224594153 3.137053606 3.1516477967 2.9619233175 
2.9765175082 2.991111699 3.0057058897 3.0203000804 3.0348942711 3.0494884618 3.0640826525 3.0786768432 3.0932710339 
3.1078652246 3.1224594153 3.137053606 3.1516477967 2.9619233175 2.9765175082 2.991111699 3.0057058897 3.0203000804 
3.0348942711 3.0494884618 3.0640826525 3.0786768432 3.0932710339 3.1078652246 3.1224594153 3.137053606 2.9619233175 
2.9765175082 2.991111699 3.0057058897 3.0203000804 3.0348942711 3.0494884618 3.0640826525 3.0786768432 3.0932710339 
3.1078652246 3.1224594153 3.137053606 2.9619233175 2.9765175082 2.991111699 3.0057058897 3.0203000804 3.0348942711 
3.0494884618 3.0640826525 3.0786768432 3.0932710339 3.1078652246 3.1224594153 3.137053606 2.9619233175 2.9765175082 
2.991111699 3.0057058897 3.0203000804 3.0348942711 3.0494884618 3.0640826525 3.0786768432 3.0932710339 3.1078652246 
3.1224594153 2.9619233175 2.9765175082 2.991111699 3.0057058897 3.0203000804 3.0348942711 3.0494884618 3.0640826525 
3.0786768432 3.0932710339 3.1078652246 3.1224594153 2.9619233175 2.9765175082 2.991111699 3.0057058897 3.0203000804 
3.0348942711 3.0494884618 3.0640826525 3.0786768432 3.0932710339 3.1078652246 3.1224594153 2.9619233175 2.9765175082 
2.991111699 3.0057058897 3.0203000804 3.0348942711 3.0494884618 3.0640826525 3.0786768432 3.0932710339 3.1078652246 
3.1224594153 3.1224594153 3.1078652246 3.0932710339 3.0786768432 3.0640826525 3.0640826525 3.0640826525 3.0786768432 
3.0786768432 3.0786768432 3.0640826525 3.0494884618 3.0348942711 3.0348942711 3.0494884618 3.0640826525 3.0786768432 
3.0932710339 3.1078652246 2.9619233175 2.9619233175 2.9765175082 2.9765175082 2.991111699 2.991111699 3.0057058897 
3.0057058897 3.0203000804 3.0203000804 3.0348942711 3.0348942711 3.0494884618 3.0494884618 3.0640826525 3.0640826525 
3.0786768432 3.0786768432 3.0932710339 3.0932710339 3.1078652246 3.1078652246 3.1224594153 2.9619233175 2.9765175082 
2.991111699 3.0057058897 3.0203000804 3.0348942711 3.0494884618 3.0640826525 3.0786768432 3.0932710339 3.1078652246 
3.1224594153 3.137053606 2.9619233175 2.9765175082 2.991111699 3.0057058897 3.0203000804 3.0348942711 3.0494884618 
3.0640826525 3.0786768432 3.0932710339 3.1078652246 3.1224594153 3.137053606 2.9619233175 2.9765175082 2.991111699 
3.0057058897 3.0203000804 3.0348942711 3.0494884618 3.0640826525 3.0786768432 3.0932710339 3.1078652246 3.1224594153 
2.9619233175 2.9765175082 2.991111699 3.0057058897 3.0203000804 3.0348942711 3.0494884618 3.0640826525 3.0786768432 
3.0932710339 3.1078652246 3.1224594153 2.9619233175 2.9765175082 2.991111699 3.0057058897 3.0203000804 3.0348942711 
3.0494884618 3.0640826525 3.0786768432 3.0932710339 3.1078652246 3.1224594153 2.9619233175 2.9765175082 2.991111699 
3.0057058897 3.0203000804 3.0348942711 3.0494884618 3.0640826525 3.0786768432 3.0932710339 3.1078652246 2.9619233175 
2.9765175082 2.991111699 3.0057058897 3.0203000804 3.0348942711 3.0494884618 3.0640826525 3.0786768432 3.0932710339 
3.1078652246 2.9619233175 2.9765175082 2.991111699 3.0057058897 3.0203000804 3.0348942711 3.0494884618 3.0640826525 
3.0786768432 3.0932710339 3.1078652246 2.9619233175 2.9765175082 2.991111699 3.0057058897 3.0203000804 3.0348942711 
3.0494884618 3.0640826525 3.0786768432 3.0932710339 3.1078652246 3.1078652246 3.0932710339 3.0786768432 3.0640826525 
3.0640826525 3.0640826525 3.0786768432 3.0786768432 3.0786768432 3.0640826525 3.0494884618 3.0348942711 3.0348942711 
3.0203000804 3.0203000804 3.0203000804 3.0203000804 3.0348942711 3.0494884618 3.0640826525 2.9619233175 2.9619233175 
2.9765175082 2.9765175082 2.991111699 2.991111699 3.0057058897 3.0057058897 3.0203000804 3.0203000804 3.0348942711 
3.0348942711 3.0494884618 3.0494884618 3.0640826525 3.0640826525 3.0786768432 3.0932710339 2.9619233175 2.9765175082 
2.991111699 3.0057058897 3.0203000804 3.0348942711 3.0494884618 3.0640826525 3.0786768432 3.0932710339 3.1078652246 
2.9619233175 2.9765175082 2.991111699 3.0057058897 3.0203000804 3.0348942711 3.0494884618 3.0640826525 3.0786768432 