# vtk DataFile Version 4.2
vtk output
ASCII
DATASET POLYDATA
POINTS 7248 float
1623.98 -2992.13 0 1627.87 -2995.34 0 1636.31 -2992.13 0 
1606.78 -2975.13 0 1664.87 -2981.29 0 1681.11 -2975.13 0 
1593.78 -2958.13 0 1701.87 -2967.25 0 1725.91 -2958.13 0 
1583.79 -2941.13 0 1590.87 -2953.66 0 1738.87 -2954.45 0 
1775.87 -2948.33 0 1812.88 -2944.04 0 1838.03 -2941.12 0 
1574.18 -2924.13 0 1849.88 -2939.75 0 1886.88 -2935.46 0 
1923.88 -2931.17 0 1960.88 -2926.88 0 1984.75 -2924.12 0 
1553.04 -2907.13 0 1553.87 -2907.79 0 1997.88 -2922.6 0 
2034.88 -2918.31 0 2071.88 -2914.02 0 2108.89 -2909.73 0 
2131.46 -2907.11 0 1513.64 -2890.13 0 1516.87 -2891.52 0 
2145.89 -2905.44 0 2182.89 -2901.15 0 2219.89 -2896.86 0 
2229.89 -2890.11 0 1474.25 -2873.13 0 1479.87 -2875.56 0 
2243.84 -2873.11 0 1434.86 -2856.13 0 1442.87 -2859.59 0 
2251.04 -2856.11 0 1395.46 -2839.13 0 1405.87 -2843.62 0 
2255.44 -2839.11 0 1356.07 -2822.13 0 1368.87 -2827.65 0 
2256.89 -2831.51 0 2258.72 -2822.1 0 1316.68 -2805.13 0 
1331.87 -2811.69 0 2262.01 -2805.1 0 1277.28 -2788.13 0 
1294.87 -2795.72 0 2265.31 -2788.1 0 1237.89 -2771.13 0 
1257.87 -2779.75 0 2268.6 -2771.1 0 1198.49 -2754.13 0 
1220.87 -2763.79 0 2271.9 -2754.1 0 1159.1 -2737.13 0 
1183.87 -2747.82 0 2275.19 -2737.1 0 1119.71 -2720.13 0 
1146.87 -2731.85 0 2278.49 -2720.1 0 1091.06 -2703.13 0 
1109.87 -2715.88 0 2281.78 -2703.1 0 1072.71 -2686.13 0 
1072.87 -2686.3 0 2285.08 -2686.1 0 1057.49 -2669.13 0 
2288.37 -2669.1 0 1042.27 -2652.13 0 2291.67 -2652.09 0 
1027.05 -2635.13 0 1035.87 -2644.98 0 2293.91 -2640.53 0 
2294.96 -2635.09 0 1011.83 -2618.13 0 2298.26 -2618.09 0 
996.604 -2601.13 0 998.874 -2603.66 0 2301.55 -2601.09 0 
981.382 -2584.13 0 2304.85 -2584.09 0 966.16 -2567.13 0 
2308.14 -2567.09 0 957.057 -2550.12 0 961.875 -2562.34 0 
2311.44 -2550.09 0 950.459 -2533.12 0 2314.73 -2533.09 0 
943.985 -2516.12 0 2318.03 -2516.09 0 937.631 -2499.12 0 
2321.32 -2499.08 0 931.394 -2482.12 0 2324.62 -2482.08 0 
925.27 -2465.12 0 2327.91 -2465.08 0 919.281 -2448.12 0 
924.88 -2464.03 0 2330.92 -2449.56 0 2331.21 -2448.08 0 
913.298 -2431.12 0 2334.5 -2431.08 0 907.314 -2414.12 0 
2337.8 -2414.08 0 901.331 -2397.12 0 2341.09 -2397.08 0 
895.347 -2380.12 0 2344.39 -2380.08 0 889.363 -2363.11 0 
2347.68 -2363.08 0 883.38 -2346.11 0 887.885 -2358.92 0 
2350.98 -2346.07 0 877.396 -2329.11 0 2354.27 -2329.07 0 
871.413 -2312.11 0 2357.56 -2312.07 0 865.429 -2295.11 0 
2360.86 -2295.07 0 859.446 -2278.11 0 2364.15 -2278.07 0 
853.462 -2261.11 0 2367.45 -2261.07 0 847.479 -2244.11 0 
850.89 -2253.8 0 2367.93 -2258.59 0 2370.74 -2244.07 0 
841.495 -2227.11 0 2381.26 -2227.07 0 835.511 -2210.11 0 
2395.08 -2210.07 0 829.528 -2193.11 0 2404.94 -2197.94 0 
2408.9 -2193.06 0 823.544 -2176.11 0 2422.72 -2176.06 0 
817.561 -2159.1 0 2436.55 -2159.06 0 811.577 -2142.1 0 
813.896 -2148.69 0 2441.94 -2152.43 0 2450.37 -2142.06 0 
806.333 -2125.1 0 2464.19 -2125.06 0 804.072 -2108.1 0 
2478.01 -2108.06 0 802.237 -2091.1 0 2478.94 -2106.91 0 
2491.83 -2091.06 0 800.402 -2074.1 0 2503.67 -2074.05 0 
798.567 -2057.1 0 2506.27 -2057.05 0 796.732 -2040.1 0 
2507.76 -2040.05 0 794.897 -2023.1 0 2508.02 -2023.05 0 
793.062 -2006.1 0 2507.5 -2006.05 0 791.227 -1989.1 0 
2506.98 -1989.05 0 789.391 -1972.09 0 2506.46 -1972.05 0 
787.556 -1955.09 0 2505.94 -1955.05 0 785.721 -1938.09 0 
2505.41 -1938.05 0 783.886 -1921.09 0 2504.89 -1921.05 0 
782.051 -1904.09 0 2504.37 -1904.04 0 780.216 -1887.09 0 
2503.85 -1887.04 0 778.381 -1870.09 0 2503.32 -1870.04 0 
776.546 -1853.09 0 776.912 -1856.48 0 2502.8 -1853.04 0 
774.711 -1836.09 0 2502.28 -1836.04 0 772.876 -1819.09 0 
2501.76 -1819.04 0 770.469 -1802.09 0 2501.24 -1802.04 0 
764.261 -1785.08 0 2500.71 -1785.04 0 759.703 -1768.08 0 
2500.19 -1768.04 0 755.001 -1751.08 0 2499.67 -1751.04 0 
749.171 -1734.08 0 2499.15 -1734.03 0 743.34 -1717.08 0 
2498.62 -1717.03 0 737.51 -1700.08 0 739.92 -1707.11 0 
2498.1 -1700.03 0 -481.112 -1685.95 0 -485.899 -1683.11 0 
-444.112 -1698.25 0 -407.11 -1688.8 0 -384.863 -1683.11 0 
731.579 -1683.08 0 2497.58 -1683.03 0 -514.546 -1666.11 0 
-370.109 -1679.34 0 -333.107 -1669.24 0 -322.456 -1666.11 0 
725.07 -1666.08 0 2497.06 -1666.03 0 -518.112 -1664 0 
-543.192 -1649.11 0 -296.106 -1658.34 0 -264.739 -1649.1 0 
717.382 -1649.08 0 2496.53 -1649.03 0 -555.112 -1642.04 0 
-571.839 -1632.11 0 -259.104 -1647.44 0 -222.102 -1636.54 0 
-207.021 -1632.1 0 711.537 -1632.08 0 2496.01 -1632.03 0 
-592.111 -1620.08 0 -600.486 -1615.11 0 -185.101 -1625.64 0 
-149.304 -1615.1 0 706.56 -1615.08 0 2495.49 -1615.03 0 
-629.111 -1598.12 0 -629.132 -1598.11 0 -148.099 -1614.74 0 
-111.097 -1603.84 0 -91.5865 -1598.1 0 702.344 -1598.07 0 
702.925 -1601.11 0 2494.97 -1598.03 0 -657.779 -1581.11 0 
-74.0957 -1592.94 0 -63.0257 -1581.09 0 699.089 -1581.07 0 
2494.96 -1581.03 0 -666.111 -1576.17 0 -686.426 -1564.11 0 
-46.3371 -1564.09 0 695.834 -1564.07 0 2495.99 -1564.02 0 
-703.11 -1554.21 0 -715.072 -1547.11 0 -37.0925 -1555.09 0 
-31.732 -1547.09 0 692.579 -1547.07 0 2497.27 -1547.02 0 
-740.11 -1532.25 0 -743.719 -1530.11 0 -20.342 -1530.09 0 
689.324 -1530.07 0 2498.55 -1530.02 0 -772.366 -1513.11 0 
-9.17813 -1513.09 0 686.069 -1513.07 0 2499.82 -1513.02 0 
-777.11 -1508.84 0 -785.849 -1496.11 0 -0.0880828 -1497.5 0 
0.69726 -1496.09 0 682.813 -1496.07 0 2501.1 -1496.02 0 
-796.888 -1479.11 0 10.1775 -1479.09 0 679.558 -1479.07 0 
2502.38 -1479.02 0 -807.926 -1462.11 0 19.6578 -1462.09 0 
676.303 -1462.07 0 2503.66 -1462.02 0 -814.107 -1452.59 0 
-818.964 -1445.11 0 29.7699 -1445.08 0 673.048 -1445.07 0 
2504.94 -1445.02 0 -830.003 -1428.11 0 36.9166 -1434.03 0 
40.8416 -1428.08 0 669.793 -1428.07 0 1498.87 -1428.04 0 
1516.96 -1428.74 0 1520.5 -1428.04 0 2506.22 -1428.02 0 
-841.041 -1411.11 0 53.7689 -1411.08 0 666.538 -1411.06 0 
1345.35 -1411.05 0 1368.95 -1422.69 0 1405.95 -1424.49 0 
1442.96 -1425.9 0 1479.96 -1427.32 0 1553.96 -1419.08 0 
1565.45 -1411.04 0 2507.49 -1411.02 0 -851.105 -1395.61 0 
-852.08 -1394.1 0 67.1216 -1394.08 0 663.283 -1394.06 0 
665.935 -1407.92 0 1314.04 -1394.05 0 1331.95 -1403.77 0 
1589.75 -1394.04 0 2508.77 -1394.01 0 -863.118 -1377.1 0 
73.9205 -1385.42 0 80.4741 -1377.08 0 660.028 -1377.06 0 
1282.73 -1377.05 0 1294.95 -1383.68 0 1590.96 -1393.19 0 
1614.05 -1377.04 0 2510.05 -1377.01 0 -874.157 -1360.1 0 
93.8267 -1360.08 0 656.773 -1360.06 0 1251.42 -1360.05 0 
1257.95 -1363.59 0 1627.96 -1367.3 0 1638.34 -1360.04 0 
2511.33 -1360.01 0 -885.195 -1343.1 0 107.179 -1343.08 0 
653.518 -1343.06 0 1220.53 -1343.05 0 1220.95 -1343.5 0 
1662.64 -1343.03 0 2512.61 -1343.01 0 -888.103 -1338.62 0 
-896.233 -1326.1 0 110.924 -1338.31 0 120.532 -1326.07 0 
650.263 -1326.06 0 1203.07 -1326.05 0 1664.97 -1341.41 0 
1686.93 -1326.03 0 2512.41 -1326.01 0 -907.272 -1309.1 0 
133.885 -1309.07 0 645.046 -1309.06 0 1182.49 -1309.05 0 
1183.95 -1310.57 0 1701.97 -1315.51 0 1711.96 -1309.03 0 
2508.77 -1309.01 0 -918.31 -1292.1 0 147.237 -1292.07 0 
636.228 -1292.06 0 1164.54 -1292.04 0 1734.39 -1292.03 0 
2506.03 -1292.01 0 -925.1 -1281.64 0 -929.349 -1275.1 0 
147.928 -1291.19 0 160.59 -1275.07 0 627.409 -1275.06 0 
628.942 -1278.01 0 1143.19 -1275.04 0 1146.96 -1277.92 0 
1738.97 -1286.57 0 1744.06 -1275.03 0 2503.06 -1275.01 0 
-940.387 -1258.1 0 170.396 -1258.07 0 618.591 -1258.06 0 
1120.93 -1258.04 0 1753.47 -1258.03 0 2499.61 -1258.01 0 
-951.425 -1241.1 0 176.153 -1241.07 0 609.978 -1241.06 0 
1098.67 -1241.04 0 1109.96 -1249.66 0 1766.84 -1241.03 0 
2496.15 -1241.01 0 -962.098 -1224.66 0 -962.467 -1224.1 0 
180.238 -1224.07 0 604.07 -1224.06 0 1076.42 -1224.04 0 
1775.98 -1229.4 0 1780.2 -1224.02 0 2492.7 -1224 0 
-973.502 -1207.1 0 183.159 -1207.07 0 599.253 -1207.05 0 
1054.16 -1207.04 0 1072.96 -1221.4 0 1793.57 -1207.02 0 
2489.25 -1207 0 -984.541 -1190.1 0 184.935 -1195.65 0 
185.805 -1190.06 0 595.325 -1190.05 0 1031.91 -1190.04 0 
1035.96 -1193.14 0 1806.93 -1190.02 0 2485.79 -1190 0 
-995.579 -1173.1 0 188.451 -1173.06 0 591.863 -1173.05 0 
591.947 -1173.46 0 1009.65 -1173.04 0 1812.98 -1182.33 0 
1820.3 -1173.02 0 2482.54 -1173 0 -999.096 -1167.68 0 
-1006.93 -1156.1 0 191.096 -1156.06 0 588.402 -1156.05 0 
991.891 -1156.04 0 998.958 -1164.88 0 1833.66 -1156.02 0 
2482.25 -1156 0 -1017.81 -1139.09 0 193.742 -1139.06 0 
584.941 -1139.05 0 978.242 -1139.04 0 1847.03 -1139.02 0 
2482.16 -1139 0 -1028.69 -1122.09 0 196.388 -1122.06 0 
581.48 -1122.05 0 964.525 -1122.04 0 1849.98 -1135.26 0 
1860.39 -1122.02 0 2482.17 -1122 0 -1036.09 -1113.64 0 
-1041.98 -1105.09 0 199.034 -1105.06 0 578.019 -1105.05 0 
954.502 -1105.04 0 961.96 -1118.73 0 1873.76 -1105.01 0 
2482.19 -1105 0 -1047.31 -1088.09 0 201.68 -1088.06 0 
574.558 -1088.05 0 946.293 -1088.04 0 1885.16 -1088.01 0 
2482.2 -1088 0 -1049.55 -1071.09 0 204.615 -1071.06 0 
571.097 -1071.05 0 937.234 -1071.04 0 1886.99 -1084.71 0 
1892.94 -1071.01 0 2482.21 -1071 0 -1051.58 -1054.09 0 
211.865 -1054.06 0 567.635 -1054.05 0 924.022 -1054.04 0 
924.963 -1055.28 0 1900.32 -1054.01 0 2482.22 -1053.99 0 
-1053.42 -1037.09 0 219.115 -1037.06 0 564.174 -1037.05 0 
910.197 -1037.04 0 1907.71 -1037.01 0 2482.23 -1036.99 0 
-1055.09 -1020.09 0 221.945 -1030.42 0 226.364 -1020.05 0 
560.713 -1020.04 0 896.371 -1020.04 0 1915.09 -1020.01 0 
2482.24 -1019.99 0 -1056.62 -1003.09 0 233.614 -1003.05 0 
557.252 -1003.04 0 882.546 -1003.04 0 887.965 -1009.7 0 
1922.47 -1003.01 0 2482.25 -1002.99 0 -1058.03 -986.087 0 
239.196 -986.052 0 553.785 -986.043 0 554.957 -991.769 0 
868.721 -986.034 0 1923.99 -999.51 0 1929.86 -986.006 0 
2482.28 -985.991 0 -1059.48 -969.086 0 241.918 -969.05 0 
547.686 -969.042 0 854.896 -969.034 0 1937.24 -969.005 0 
2482.26 -968.99 0 -1061.65 -952.085 0 243.877 -952.049 0 
539.704 -952.041 0 841.07 -952.033 0 850.966 -964.202 0 
1944.63 -952.003 0 2480.03 -951.989 0 -1063.82 -935.084 0 
245.355 -935.048 0 532.646 -935.041 0 827.245 -935.033 0 
1953.29 -935.002 0 2479.01 -944.6 0 2477.75 -934.988 0 
[...]
POINT_DATA 7248
SCALARS Pressure double
LOOKUP_TABLE default
3.0932710339 3.0932710339 3.0932710339 3.0932710339 3.0932710339 3.0932710339 3.0932710339 3.0932710339 3.0932710339 
3.0932710339 3.0932710339 3.0932710339 3.0932710339 3.0932710339 3.0932710339 3.0932710339 3.0932710339 3.0932710339 
3.0932710339 3.0932710339 3.0932710339 3.0932710339 3.0932710339 3.0932710339 3.0932710339 3.0932710339 3.0932710339 
3.0932710339 3.0932710339 3.0932710339 3.0932710339 3.0932710339 3.0932710339 3.0932710339 3.0932710339 3.0932710339 
3.0932710339 3.0932710339 3.0932710339 3.0932710339 3.0932710339 3.0932710339 3.0932710339 3.0932710339 3.0932710339 
3.0932710339 3.0932710339 3.0932710339 3.0932710339 3.0932710339 3.0932710339 3.0932710339 3.0932710339 3.0932710339 
3.0932710339 3.0932710339 3.0932710339 3.0932710339 3.0932710339 3.0932710339 3.0932710339 3.0932710339 3.0932710339 
3.0932710339 3.0932710339 3.0932710339 3.0932710339 3.0932710339 3.0932710339 3.0932710339 3.0932710339 3.0932710339 
3.0932710339 3.0932710339 3.0932710339 3.0932710339 3.0932710339 3.0932710339 3.0932710339 3.0932710339 3.0932710339 
3.0932710339 3.0932710339 3.0932710339 3.0932710339 3.0932710339 3.0932710339 3.0932710339 3.0932710339 3.0932710339 
3.0932710339 3.0932710339 3.0932710339 3.0932710339 3.0932710339 3.0932710339 3.0932710339 3.0932710339 3.0932710339 
3.0932710339 3.0932710339 3.0932710339 3.0932710339 3.0932710339 3.0932710339 3.0932710339 3.0932710339 3.0932710339 
3.0932710339 3.0932710339 3.0932710339 3.0932710339 3.0932710339 3.0932710339 3.0932710339 3.0932710339 3.0932710339 
3.0932710339 3.0932710339 3.0932710339 3.0932710339 3.0932710339 3.0932710339 3.0932710339 3.0932710339 3.0932710339 
3.0932710339 3.0932710339 3.0932710339 3.0932710339 3.0932710339 3.0932710339 3.0932710339 3.0932710339 3.0932710339 
3.0932710339 3.0932710339 3.0932710339 3.0932710339 3.0932710339 3.0932710339 3.0932710339 3.0932710339 3.0932710339 
3.0932710339 3.0932710339 3.0932710339 3.0932710339 3.0932710339 3.0932710339 3.0932710339 3.0932710339 3.0932710339 
3.0932710339 3.0932710339 3.0932710339 3.0932710339 3.0932710339 3.0932710339 3.0932710339 3.0932710339 3.0932710339 
3.0932710339 3.0932710339 3.0932710339 3.0932710339 3.0932710339 3.0932710339 3.0932710339 3.0932710339 3.0932710339 
3.0932710339 3.0932710339 3.0932710339 3.0932710339 3.0932710339 3.0932710339 3.0932710339 3.0932710339 3.0932710339 
3.0932710339 3.0932710339 3.0932710339 3.0932710339 3.0932710339 3.0932710339 3.0932710339 3.0932710339 3.0932710339 
3.0932710339 3.0932710339 3.0932710339 3.0932710339 3.0932710339 3.0932710339 3.0932710339 3.0932710339 3.0932710339 
3.0932710339 3.0932710339 3.0932710339 3.0932710339 3.0786768432 3.0786768432 3.0786768432 3.0786768432 3.0786768432 
3.0932710339 3.0932710339 3.0786768432 3.0786768432 3.0786768432 3.0786768432 3.0932710339 3.0932710339 3.0786768432 
3.0786768432 3.0786768432 3.0786768432 3.0932710339 3.0932710339 3.0786768432 3.0786768432 3.0786768432 3.0786768432 
3.0786768432 3.0932710339 3.0932710339 3.0786768432 3.0786768432 3.0786768432 3.0786768432 3.0932710339 3.0932710339 
3.0786768432 3.0786768432 3.0786768432 3.0786768432 3.0786768432 3.0932710339 3.0932710339 3.0932710339 3.0786768432 
3.0786768432 3.0786768432 3.0932710339 3.0932710339 3.0786768432 3.0786768432 3.0786768432 3.0932710339 3.0932710339 
3.0786768432 3.0786768432 3.0786768432 3.0786768432 3.0932710339 3.0932710339 3.0786768432 3.0786768432 3.0786768432 
3.0932710339 3.0932710339 3.0786768432 3.0786768432 3.0932710339 3.0932710339 3.0786768432 3.0786768432 3.0786768432 
3.0786768432 3.0932710339 3.0932710339 3.0786768432 3.0786768432 3.0932710339 3.0932710339 3.0786768432 3.0786768432 
3.0932710339 3.0932710339 3.0786768432 3.0786768432 3.0786768432 3.0932710339 3.0932710339 3.0786768432 3.0786768432 
3.0786768432 3.0932710339 3.1078652246 3.1078652246 3.1078652246 3.0932710339 3.0786768432 3.0786768432 3.0932710339 
3.1078652246 3.1078652246 3.1078652246 3.1078652246 3.1078652246 3.1078652246 3.1078652246 3.0932710339 3.0786768432 
3.0786768432 3.0786768432 3.0932710339 3.0932710339 3.1078652246 3.1078652246 3.1078652246 3.0932710339 3.0786768432 
3.0786768432 3.0786768432 3.0932710339 3.1078652246 3.1078652246 3.1078652246 3.1078652246 3.0932710339 3.0786768432 
3.0786768432 3.0932710339 3.1078652246 3.1078652246 3.1078652246 3.1078652246 3.0932710339 3.0786768432 3.0786768432 
3.0932710339 3.1078652246 3.1078652246 3.1078652246 3.0932710339 3.0786768432 3.0786768432 3.0786768432 3.0786768432 
3.0932710339 3.1078652246 3.1078652246 3.1078652246 3.0932710339 3.0786768432 3.0786768432 3.0932710339 3.1078652246 
3.1078652246 3.1078652246 3.1078652246 3.0932710339 3.0786768432 3.0786768432 3.0932710339 3.1078652246 3.1078652246 
3.0932710339 3.0786768432 3.0786768432 3.0786768432 3.0786768432 3.0932710339 3.0932710339 3.1078652246 3.1078652246 
3.1078652246 3.1078652246 3.0932710339 3.0786768432 3.0786768432 3.0932710339 3.1078652246 3.1078652246 3.0932710339 
3.0786768432 3.0786768432 3.0932710339 3.1078652246 3.1078652246 3.1078652246 3.0932710339 3.0786768432 3.0786768432 
3.0786768432 3.0932710339 3.1078652246 3.1078652246 3.1078652246 3.0932710339 3.0786768432 3.0786768432 3.0932710339 
3.1078652246 3.1078652246 3.1078652246 3.0932710339 3.0786768432 3.0786768432 3.0786768432 3.0932710339 3.1078652246 
3.1078652246 3.1078652246 3.0932710339 3.0786768432 3.0786768432 3.0932710339 3.0932710339 3.1078652246 3.1078652246 
3.1078652246 3.0932710339 3.0786768432 3.0786768432 3.0786768432 3.0932710339 3.1078652246 3.1078652246 3.1078652246 
3.0932710339 3.0786768432 3.0786768432 3.0932710339 3.1078652246 3.1078652246 3.0932710339 3.0786768432 3.0786768432 
3.0932710339 3.1078652246 3.1078652246 3.1078652246 3.0932710339 3.0786768432 3.0786768432 3.0786768432 3.0932710339 
3.1078652246 3.1078652246 3.1078652246 3.0932710339 3.0786768432 3.0786768432 3.0932710339 3.1078652246 3.1078652246 
3.0932710339 3.0786768432 3.0786768432 3.0932710339 3.1078652246 3.1078652246 3.1078652246 3.0932710339 3.0786768432 
3.0786768432 3.0932710339 3.1078652246 3.1078652246 3.1078652246 3.0932710339 3.0786768432 3.0786768432 3.0932710339 
3.1078652246 3.1078652246 3.0932710339 3.0786768432 3.0786768432 3.0786768432 3.0932710339 3.1078652246 3.1078652246 
3.0932710339 3.0786768432 3.0786768432 3.0932710339 3.1078652246 3.1078652246 3.1078652246 3.0932710339 3.0786768432 
3.0786768432 3.0932710339 3.0932710339 3.1078652246 3.1078652246 3.1078652246 3.0932710339 3.0786768432 3.0786768432 
3.0932710339 3.1078652246 3.1078652246 3.0932710339 3.0786768432 3.0786768432 3.0932710339 3.1078652246 3.1078652246 
3.1078652246 3.0932710339 3.0786768432 3.0786768432 3.0932710339 3.1078652246 3.1078652246 3.0932710339 3.0932710339 
3.0786768432 3.0786768432 3.0932710339 3.1078652246 3.1078652246 3.1078652246 3.1078652246 3.0932710339 3.0786768432 
3.0786768432 3.0932710339 3.1078652246 3.1078652246 3.0932710339 3.0786768432 3.0786768432 3.0932710339 3.0932710339 
3.1078652246 3.1078652246 3.0932710339 3.0786768432 3.0786768432 3.0932710339 3.1078652246 3.1078652246 3.0932710339 
3.0786768432 3.0786768432 3.0786768432 3.0932710339 3.1078652246 3.1078652246 3.1078652246 3.0932710339 3.0786768432 
3.0786768432 3.0932710339 3.1078652246 3.1078652246 3.1078652246 3.0932710339 3.0786768432 3.0786768432 3.0932710339 
3.1078652246 3.1078652246 3.0932710339 3.0786768432 3.0786768432 3.0932710339 3.1078652246 3.1224594153 3.1224594153 
3.1224594153 3.1224594153 3.1224594153 3.1224594153 3.1224594153 3.1078652246 3.0932710339 3.0786768432 3.0786768432 
3.0786768432 3.0786768432 3.0786768432 3.0786768432 3.0932710339 3.1078652246 3.1078652246 3.1224594153 3.1224594153 
3.1224594153 3.1224594153 3.1224594153 3.1078652246 3.0932710339 3.0786768432 3.0786768432 3.0786768432 3.0786768432 
3.0786768432 3.0640826525 3.0640826525 3.0640826525 3.0640826525 3.0640826525 3.0640826525 3.0640826525 3.0786768432 
3.0932710339 3.0932710339 3.1078652246 3.1224594153 3.1224594153 3.1224594153 3.1078652246 3.0932710339 3.0786768432 
3.0786768432 3.0786768432 3.0786768432 3.0786768432 3.0640826525 3.0640826525 3.0640826525 3.0640826525 3.0640826525 
3.0786768432 3.0786768432 3.0932710339 3.1078652246 3.1224594153 3.1224594153 3.1224594153 3.1224594153 3.1078652246 
3.0932710339 3.0786768432 3.0786768432 3.0786768432 3.0786768432 3.0786768432 3.0640826525 3.0640826525 3.0640826525 
3.0786768432 3.0932710339 3.1078652246 3.1078652246 3.1224594153 3.1224594153 3.1224594153 3.1224594153 3.1078652246 
3.0932710339 3.0786768432 3.0786768432 3.0786768432 3.0786768432 3.0786768432 3.0786768432 3.0640826525 3.0640826525 
3.0640826525 3.0786768432 3.0932710339 3.1078652246 3.1224594153 3.1224594153 3.1224594153 3.1078652246 3.1078652246 
3.0932710339 3.0786768432 3.0786768432 3.0786768432 3.0786768432 3.0786768432 3.0640826525 3.0640826525 3.0640826525 
3.0786768432 3.0932710339 3.1078652246 3.1224594153 3.1224594153 3.1224594153 3.1078652246 3.0932710339 3.0786768432 
3.0786768432 3.0786768432 3.0786768432 3.0640826525 3.0640826525 3.0640826525 3.0786768432 3.0932710339 3.1078652246 
3.1078652246 3.1224594153 3.1224594153 3.1224594153 3.1078652246 3.0932710339 3.0786768432 3.0786768432 3.0786768432 
3.0786768432 3.0640826525 3.0640826525 3.0786768432 3.0932710339 3.1078652246 3.1224594153 3.1224594153 3.1224594153 
3.1078652246 3.0932710339 3.0786768432 3.0786768432 3.0786768432 3.0786768432 3.0640826525 3.0640826525 3.0640826525 
3.0640826525 3.0786768432 3.0932710339 3.1078652246 3.1224594153 3.1224594153 3.1224594153 3.1078652246 3.0932710339 
3.0786768432 3.0786768432 3.0786768432 3.0786768432 3.0640826525 3.0640826525 3.0786768432 3.0932710339 3.1078652246 
3.1224594153 3.1224594153 3.1224594153 3.1078652246 3.0932710339 3.0786768432 3.0786768432 3.0786768432 3.0786768432 
3.0640826525 3.0640826525 3.0640826525 3.0786768432 3.0932710339 3.0932710339 3.1078652246 3.1224594153 3.1224594153 
3.1224594153 3.1078652246 3.0932710339 3.0786768432 3.0786768432 3.0786768432 3.0786768432 3.0640826525 3.0640826525 
3.0640826525 3.0786768432 3.0932710339 3.1078652246 3.1078652246 3.1224594153 3.1224594153 3.1078652246 3.1078652246 
3.0932710339 3.0786768432 3.0786768432 3.0786768432 3.0786768432 3.0640826525 3.0640826525 3.0786768432 3.0932710339 
3.1078652246 3.1224594153 3.1224594153 3.1224594153 3.1078652246 3.0932710339 3.0786768432 3.0786768432 3.0786768432 
3.0786768432 3.0640826525 3.0640826525 3.0786768432 3.0932710339 3.1078652246 3.1224594153 3.1224594153 3.1224594153 
3.1078652246 3.0932710339 3.0786768432 3.0786768432 3.0786768432 3.0640826525 3.0640826525 3.0640826525 3.0786768432 
3.0932710339 3.1078652246 3.1078652246 3.1224594153 3.1224594153 3.1224594153 3.1078652246 3.0932710339 3.0786768432 
3.0786768432 3.0786768432 3.0640826525 3.0640826525 3.0786768432 3.0932710339 3.1078652246 3.1224594153 3.1224594153 
3.1078652246 3.0932710339 3.0786768432 3.0786768432 3.0786768432 3.0640826525 3.0640826525 3.0640826525 3.0786768432 
3.0932710339 3.0932710339 3.1078652246 3.1224594153 3.1224594153 3.1224594153 3.1224594153 3.1078652246 3.0932710339 
3.0786768432 3.0786768432 3.0786768432 3.0786768432 3.0640826525 3.0640826525 3.0786768432 3.0932710339 3.1078652246 
3.1078652246 3.1224594153 3.1224594153 3.1078652246 3.0932710339 3.0786768432 3.0786768432 3.0786768432 3.0786768432 
3.0640826525 3.0640826525 3.0786768432 3.0932710339 3.1078652246 3.1224594153 3.1224594153 3.1224594153 3.1078652246 
3.0932710339 3.0786768432 3.0786768432 3.0786768432 3.0786768432 3.0640826525 3.0494884618 3.0494884618 3.0494884618 
3.0640826525 3.0786768432 3.0932710339 3.1078652246 3.1224594153 3.1224594153 3.1078652246 3.0932710339 3.0786768432 
3.0786768432 3.0786768432 3.0640826525 3.0494884618 3.0494884618 3.0494884618 3.0494884618 3.0640826525 3.0786768432 
3.0932710339 3.1078652246 3.1224594153 3.1224594153 3.1224594153 3.1078652246 3.0932710339 3.0786768432 3.0786768432 
3.0786768432 3.0640826525 3.0640826525 3.0494884618 3.0494884618 3.0494884618 3.0494884618 3.0640826525 3.0786768432 
3.0786768432 3.0932710339 3.1078652246 3.1078652246 3.1224594153 3.1224594153 3.1078652246 3.0932710339 3.0786768432 
3.0786768432 3.0786768432 3.0640826525 3.0494884618 3.0494884618 3.0494884618 3.0494884618 3.0640826525 3.0786768432 
3.0932710339 3.1078652246 3.1224594153 3.1224594153 3.1078652246 3.0932710339 3.0932710339 3.0786768432 3.0786768432 
3.0786768432 3.0640826525 3.0494884618 3.0494884618 3.0494884618 3.0640826525 3.0786768432 3.0932710339 3.0932710339 
3.1078652246 3.1224594153 3.1224594153 3.137053606 3.137053606 3.137053606 3.137053606 3.137053606 3.137053606 
3.1224594153 3.1224594153 3.1078652246 3.0932710339 3.0786768432 3.0786768432 3.0786768432 3.0786768432 3.0786768432 
3.0640826525 3.0494884618 3.0494884618 3.0640826525 3.0786768432 3.0932710339 3.1078652246 3.1078652246 3.1224594153 
3.137053606 3.137053606 3.137053606 3.1224594153 3.1078652246 3.0932710339 3.0786768432 3.0786768432 3.0786768432 
3.0640826525 3.0494884618 3.0494884618 3.0494884618 3.0640826525 3.0786768432 3.0932710339 3.1078652246 3.1224594153 
3.137053606 3.137053606 3.137053606 3.1224594153 3.1078652246 3.0932710339 3.0786768432 3.0786768432 3.0786768432 
3.0640826525 3.0494884618 3.0494884618 3.0494884618 3.0640826525 3.0786768432 3.0932710339 3.1078652246 3.1224594153 
3.137053606 3.137053606 3.137053606 3.1224594153 3.1078652246 3.0932710339 3.0786768432 3.0786768432 3.0786768432 
3.0786768432 3.0640826525 3.0494884618 3.0494884618 3.0640826525 3.0786768432 3.0932710339 3.0932710339 3.1078652246 
3.1224594153 3.1224594153 3.137053606 3.137053606 3.137053606 3.1224594153 3.1078652246 3.0932710339 3.0786768432 
3.0786768432 3.0786768432 3.0786768432 3.0640826525 3.0494884618 3.0494884618 3.0640826525 3.0786768432 3.0932710339 
3.1078652246 3.1078652246 3.1224594153 3.137053606 3.137053606 3.1224594153 3.1078652246 3.0932710339 3.0786768432 
3.0786768432 3.0786768432 3.0786768432 3.0786768432 3.0640826525 3.0640826525 3.0494884618 3.0494884618 3.0494884618 
3.0640826525 3.0786768432 3.0932710339 3.1078652246 3.1224594153 3.137053606 3.137053606 3.1224594153 3.1078652246 
3.0932710339 3.0786768432 3.0786768432 3.0786768432 3.0786768432 3.0640826525 3.0494884618 3.0348942711 3.0348942711 
3.0348942711 3.0348942711 3.0494884618 3.0494884618 3.0640826525 3.0640826525 3.0786768432 3.0932710339 3.1078652246 
3.1224594153 3.137053606 3.137053606 3.1224594153 3.1078652246 3.0932710339 3.0786768432 3.0786768432 3.0786768432 
3.0786768432 3.0786768432 3.0786768432 3.0786768432 3.0640826525 3.0494884618 3.0348942711 3.0348942711 3.0348942711 
3.0348942711 3.0494884618 3.0640826525 3.0786768432 3.0932710339 3.1078652246 3.1224594153 3.137053606 3.137053606 
3.137053606 3.1224594153 3.1078652246 3.0932710339 3.0786768432 3.0640826525 3.0640826525 3.0640826525 3.0640826525 
3.0640826525 3.0640826525 3.0786768432 3.0786768432 3.0786768432 3.0786768432 3.0786768432 3.0786768432 3.0640826525 
3.0494884618 3.0348942711 3.0348942711 3.0348942711 3.0494884618 3.0640826525 3.0786768432 3.0932710339 3.1078652246 
3.1224594153 3.1224594153 3.137053606 3.137053606 3.1224594153 3.1078652246 3.0932710339 3.0786768432 3.0640826525 
3.0640826525 3.0640826525 3.0786768432 3.0786768432 3.0786768432 3.0640826525 3.0494884618 3.0348942711 3.0348942711 
3.0348942711 3.0494884618 3.0640826525 3.0786768432 3.0932710339 3.1078652246 3.1224594153 3.137053606 3.137053606 
3.1224594153 3.1078652246 3.0932710339 3.0786768432 3.0786768432 3.0640826525 3.0640826525 3.0640826525 3.0786768432 
3.0786768432 3.0786768432 3.0640826525 3.0494884618 3.0348942711 3.0348942711 3.0494884618 3.0640826525 3.0786768432 
3.0786768432 3.0932710339 3.0932710339 3.1078652246 3.1224594153 3.137053606 3.137053606 3.1224594153 3.1078652246 
3.0932710339 3.0786768432 3.0640826525 3.0640826525 3.0640826525 3.0640826525 3.0786768432 3.0786768432 3.0640826525 
3.0494884618 3.0494884618 3.0348942711 3.0348942711 3.0348942711 3.0348942711 3.0494884618 3.0640826525 3.0786768432 
3.0932710339 3.1078652246 3.1224594153 3.137053606 3.137053606 3.137053606 3.1224594153 3.1078652246 3.0932710339 
3.0932710339 3.0786768432 3.0640826525 3.0640826525 3.0786768432 3.0786768432 3.0786768432 3.0640826525 3.0494884618 
3.0348942711 3.0203000804 3.0203000804 3.0203000804 3.0203000804 3.0348942711 3.0494884618 3.0640826525 3.0640826525 
3.0786768432 3.0932710339 3.1078652246 3.1224594153 2.9619233175 2.9619233175 2.9765175082 2.9765175082 2.991111699 
2.991111699 3.0057058897 3.0057058897 3.0203000804 3.0203000804 3.0348942711 3.0348942711 3.0494884618 3.0494884618 
3.0640826525 3.0640826525 3.0786768432 3.0786768432 3.0932710339 3.0932710339 3.1078652246 3.1078652246 3.1224594153 
3.1224594153 2.9619233175 2.9765175082 2.991111699 3.0057058897 3.0203000804 3.0348942711 3.0494884618 3.0640826525 
3.0786768432 3.0932710339 3.1078652246 3.1224594153 2.9619233175 2.9765175082 2.991111699 3.0057058897 3.0203000804 
3.0348942711 3.0494884618 3.0640826525 3.0786768432 3.0932710339 3.1078652246 3.1224594153 2.9619233175 2.9765175082 
2.991111699 3.0057058897 3.0203000804 3.0348942711 3.0494884618 3.0640826525 3.0786768432 3.0932710339 3.1078652246 
3.1224594153 2.9619233175 2.9765175082 2.991111699 3.0057058897 3.0203000804 3.0348942711 3.0494884618 3.0640826525 
3.0786768432 3.0932710339 3.1078652246 3.1224594153 3.137053606 2.9619233175 2.9765175082 2.991111699 3.0057058897 
3.0203000804 3.0348942711 3.0494884618 3.0640826525 3.0786768432 3.0932710339 3.1078652246 3.1224594153 3.137053606 
2.9619233175 2.9765175082 2.991111699 3.0057058897 3.0203000804 3.0348942711 3.0494884618 3.0640826525 3.0786768432 
3.0932710339 3.1078652246 3.1224594153 3.137053606 2.9619233175 2.9765175082 2.991111699 3.0057058897 3.0203000804 
3.0348942711 3.0494884618 3.0640826525 3.0786768432 3.0932710339 3.1078652246 3.1224594153 3.137053606 2.9619233175 
2.9765175082 2.991111699 3.0057058897 3.0203000804 3.0348942711 3.0494884618 3.0640826525 3.0786768432 3.0932710339 
3.1078652246 3.1224594153 3.137053606 2.9619233175 2.9765175082 2.991111699 3.0057058897 3.0203000804 3.0348942711 
3.0494884618 3.0640826525 3.0786768432 3.0932710339 3.1078652246 3.1224594153 3.137053606 3.137053606 3.1224594153 
3.1078652246 3.0932710339 3.0786768432 3.0640826525 3.0640826525 3.0640826525 3.0786768432 3.0786768432 3.0786768432 
3.0640826525 3.0494884618 3.0348942711 3.0203000804 3.0203000804 3.0203000804 3.0203000804 3.0348942711 3.0494884618 
3.0640826525 3.0786768432 3.0932710339 3.0932710339 2.9619233175 2.9619233175 2.9765175082 2.9765175082 2.991111699 
2.991111699 3.0057058897 3.0057058897 3.0203000804 3.0203000804 3.0348942711 3.0348942711 3.0494884618 3.0494884618 
3.0640826525 3.0640826525 3.0786768432 3.0786768432 3.0932710339 3.0932710339 3.1078652246 2.9619233175 2.9765175082 
2.991111699 3.0057058897 3.0203000804 3.0348942711 3.0494884618 3.0640826525 3.0786768432 3.0932710339 3.1078652246 
2.9619233175 2.9765175082 2.991111699 3.0057058897 3.0203000804 3.0348942711 3.0494884618 3.0640826525 3.0786768432 
3.0932710339 3.1078652246 2.9619233175 2.9765175082 2.991111699 3.0057058897 3.0203000804 3.0348942711 3.0494884618 
3.0640826525 3.0786768432 3.0932710339 3.1078652246 2.9619233175 2.9765175082 2.991111699 3.0057058897 3.0203000804 
3.0348942711 3.0494884618 3.0640826525 3.0786768432 3.0932710339 3.1078652246 3.1224594153 2.9619233175 2.9765175082 
2.991111699 3.0057058897 3.0203000804 3.0348942711 3.0494884618 3.0640826525 3.0786768432 3.0932710339 3.1078652246 
3.1224594153 2.9619233175 2.9765175082 2.991111699 3.0057058897 3.0203000804 3.0348942711 3.0494884618 3.0640826525 
3.0786768432 3.0932710339 3.1078652246 3.1224594153 2.9619233175 2.9765175082 2.991111699 3.0057058897 3.0203000804 
3.0348942711 3.0494884618 3.0640826525 3.0786768432 3.0932710339 3.1078652246 3.1224594153 2.9619233175 2.9765175082 