# vtk DataFile Version 4.2
vtk output
ASCII
DATASET UNSTRUCTURED_GRID
POINTS 1740 double
2144.07 -94.44003 0 2911 0 0 16.54298 -37.82236 0 
5.09149 -21.30132 0 1.27433 -10.75385 0 0 0 0 
2.54575 15.14293 0 6.36291 23.76126 0 14.00014 34.89063 0 
30.50239 50.70793 0 33.39435 -52.93479 0 2050.91 -103.7862 0 
60.1465 -69.72165 0 88.83633 -83.2817 0 118.7656 -94.71113 0 
153.4168 -105.7022 0 199.5806 -117.771 0 261.4466 -130.7139 0 
345.846 -144.1892 0 460.3522 -157.0592 0 608.4185 -167.1903 0 
783.2313 -172.4016 0 941.0559 -172.4533 0 1063.409 -170.1096 0 
1164.153 -166.8746 0 1263.449 -162.682 0 1375.468 -156.8941 0 
1513.293 -148.414 0 1665.281 -137.5317 0 1791.864 -127.3721 0 
2195.451 -89.09491 0 2273.924 -80.67077 0 2383.731 -68.3513 0 
2517.64 -52.47337 0 2649.227 -35.9232 0 2740.773 -23.82991 0 
2804.387 -15.13419 0 2848.802 -8.916218 0 2881.944 -4.196067 0 
56.61447 67.79801 0 84.09687 81.25172 0 112.4783 92.48395 0 
142.1748 102.3504 0 174.8563 111.6168 0 213.124 120.8806 0 
260.3759 130.5151 0 324.6539 141.1779 0 418.1422 152.9178 0 
535.6656 162.9871 0 690.9154 170.4255 0 902.6513 172.7852 0 
1100.32 169.0517 0 1270.99 162.3262 0 1462.794 151.6837 0 
1631.287 140.0952 0 1747.993 131 0 1922.788 115.9027 0 
2069.56 101.951 0 2128.804 96.0021 0 2297.147 78.11721 0 
2414.379 64.80104 0 2554.023 47.99319 0 2673.693 32.73885 0 
2757.97 21.50315 0 2814.297 13.7575 0 2852.02 8.460961 0 
2882.272 4.148909 0 1791.052 127.4402 0 1366.894 157.3738 0 
1444.38 -152.8302 0 1547.039 146.1296 0 1589.287 -143.1614 0 
1878.731 119.8675 0 1997.072 108.9828 0 1185.654 166.0472 0 
1882.536 -119.5292 0 1971.323 -111.4145 0 1684.777 136.0292 0 
2099.317 -98.9855 0 2234.809 84.9091 0 2181.695 90.53914 0 
1728.573 -132.5703 0 1718.815 133.3509 0 1834.825 123.7132 0 
1960.305 112.4444 0 2033.69 105.4648 0 2099.184 98.99892 0 
2214.291 -91.049718748 396.8421 2955.512 -1.3436515525 396.8421 158.0786 -33.799052121 396.8421 
147.0109 -17.910841148 396.8421 143.3217 -7.7678517839 396.8421 142.09 2.5731342574 396.8421 
144.5505 17.133647227 396.8421 148.2398 25.419731339 396.8421 155.621 36.11896254 396.8421 
171.5701 51.321927288 396.8421 174.3652 -48.333305261 396.8421 2124.254 -99.86389242 396.8421 
200.2206 -64.478979545 396.8421 227.9488 -77.522363788 396.8421 256.8748 -88.517888113 396.8421 
290.3647 -99.09389278 396.8421 334.981 -110.71079184 396.8421 394.7733 -123.17676738 396.8421 
476.3434 -136.17106828 396.8421 587.0114 -148.61414657 396.8421 730.1145 -158.47398635 396.8421 
899.0676 -163.66713689 396.8421 1051.602 -163.91781444 396.8421 1169.853 -161.84129508 396.8421 
1267.221 -158.88867055 396.8421 1363.188 -155.02245979 396.8421 1471.452 -149.65279226 396.8421 
1604.657 -141.75063821 396.8421 1751.55 -131.57407745 396.8421 1873.891 -122.04830208 396.8421 
2263.949 -86.003311156 396.8421 2339.792 -78.041958765 396.8421 2445.918 -66.382139054 396.8421 
2575.338 -51.325195625 396.8421 2702.515 -35.596822732 396.8421 2790.992 -24.08276007 396.8421 
2852.473 -15.792717433 396.8421 2895.4 -9.8594213359 396.8421 2927.431 -5.3523895288 396.8421 
196.807 67.742746904 396.8421 223.3682 80.663803177 396.8421 250.7983 91.446043557 396.8421 
279.4994 100.91191504 396.8421 311.0855 109.79640159 396.8421 348.0705 118.6711423 396.8421 
393.7383 127.89093803 396.8421 455.8617 138.07755457 396.8421 546.2162 149.25908552 396.8421 
659.8003 158.79190931 396.8421 809.846 165.72753788 396.8421 1014.485 167.67475646 396.8421 
1205.528 163.76735308 396.8421 1370.477 157.01964824 396.8421 1555.851 146.46914231 396.8421 
1718.696 135.05010707 396.8421 1831.49 126.1169794 396.8421 2000.426 111.32697359 396.8421 
2142.278 97.691782586 396.8421 2199.537 91.885847807 396.8421 2362.236 74.455433333 396.8421 
2475.539 61.499116812 396.8421 2610.501 45.168513275 396.8421 2726.16 30.367282473 396.8421 
2807.613 19.476351986 396.8421 2862.05 11.973402499 396.8421 2898.509 6.8450502391 396.8421 
2927.749 2.6712117372 396.8421 1873.106 122.6257966 396.8421 1463.165 152.0989388 396.8421 
1538.054 -145.8698341 396.8421 1637.272 140.9899583 396.8421 1678.104 -136.8427203 396.8421 
1957.846 115.20715497 396.8421 2072.22 104.5606802 396.8421 1288 160.73842877 396.8421 
1961.524 -114.68152158 396.8421 2047.334 -107.04859343 396.8421 1770.393 131.05406845 396.8421 
2171.038 -95.338070496 396.8421 2301.989 81.070605627 396.8421 2250.655 86.557931424 396.8421 
1812.721 -126.9247782 396.8421 1803.29 128.42401308 396.8421 1915.411 118.97324268 396.8421 
2036.686 107.94445104 396.8421 2107.61 101.12333 396.8421 2170.909 94.810124576 396.8421 
2284.511 -84.30171514 793.6842 3000.027 0.52280879082 793.6842 299.6143 -27.780670146 793.6842 
288.9304 -12.507960587 793.6842 285.3691 -2.7547125204 793.6842 284.1801 7.1912795976 793.6842 
286.5551 21.199379064 793.6842 290.1167 29.173024001 793.6842 297.2417 39.470817278 793.6842 
312.6379 54.107085574 793.6842 315.336 -41.7460492 793.6842 2197.597 -92.610144716 793.6842 
340.2947 -57.252993234 793.6842 367.0612 -69.774936695 793.6842 394.9839 -80.327124727 793.6842 
427.3123 -90.473536797 793.6842 470.3812 -101.61528213 793.6842 528.0998 -113.56822618 793.6842 
606.8411 -126.02607753 793.6842 713.6708 -137.95936909 793.6842 851.8104 -147.43197974 793.6842 
1014.904 -152.46293251 793.6842 1162.147 -152.78019958 793.6842 1276.298 -150.86873338 793.6842 
1370.288 -148.11591455 793.6842 1462.927 -144.4967964 793.6842 1567.436 -139.45975283 793.6842 
1696.021 -132.03652388 793.6842 1837.82 -122.46731159 793.6842 1955.917 -113.50375742 793.6842 
2332.447 -79.542995555 793.6842 2405.659 -72.032569479 793.6842 2508.105 -61.026579753 793.6842 
2633.037 -46.801756251 793.6842 2755.801 -31.927218932 793.6842 2841.209 -21.02798829 793.6842 
2900.561 -13.175178786 793.6842 2941.997 -7.5519807284 793.6842 2972.917 -3.278943796 793.6842 
336.9995 69.920169297 793.6842 362.6396 82.36564379 793.6842 389.1182 92.75225195 793.6842 
416.8239 101.87130193 793.6842 447.3145 110.43022339 793.6842 483.0167 118.9789968 793.6842 
527.1009 127.8584968 793.6842 587.0697 137.66522142 793.6842 674.2905 148.41994223 793.6842 
783.9349 157.56899167 793.6842 928.7766 164.18320533 793.6842 1126.317 165.92993669 793.6842 
1310.735 162.00968151 793.6842 1469.963 155.34978821 793.6842 1648.908 144.9821085 793.6842 
1806.105 133.78363446 793.6842 1914.987 125.03146275 793.6842 2078.064 110.55174517 793.6842 
2214.996 97.211598339 793.6842 2270.269 91.533575412 793.6842 2427.326 74.49469328 793.6842 
2536.699 61.836475291 793.6842 2666.98 45.890098652 793.6842 2778.628 31.445161975 793.6842 
2857.255 20.821210684 793.6842 2909.806 13.504545005 793.6842 2945.001 8.5046224528 793.6842 
2973.224 4.4359651198 793.6842 1955.16 121.61238753 793.6842 1559.437 150.51054081 793.6842 
1631.729 -135.90715538 793.6842 1727.505 139.60682709 793.6842 1766.921 -127.42253944 793.6842 
2036.96 114.34936583 793.6842 2147.368 103.9308357 793.6842 1390.347 159.01472 793.6842 
2040.511 -106.56836612 793.6842 2123.346 -99.379576036 793.6842 1856.009 129.86782758 793.6842 
2242.759 -88.34451472 793.6842 2369.167 80.95995633 793.6842 2319.614 86.32412805 793.6842 
1896.869 -118.093131 793.6842 1887.765 127.29124675 793.6842 1995.998 118.03612476 793.6842 
2113.066 107.24170595 793.6842 2181.531 100.56814883 793.6842 2242.634 94.393258951 793.6842 
2354.732 -75.244562719 1190.526 3044.539 4.8600633281 1190.526 441.15 -20.574326604 1190.526 
430.8497 -5.9025108544 1190.526 427.4164 3.4724666679 1190.526 426.2701 13.036831236 1190.526 
428.5601 26.51415057 1190.526 431.9934 34.189259735 1190.526 438.8627 44.105468759 1190.526 
453.7057 58.207270467 1190.526 456.3069 -33.980470038 1190.526 2270.94 -83.09080913 1190.526 
480.3688 -48.854659133 1190.526 506.1737 -60.855927599 1190.526 533.0934 -70.962145394 1190.526 
564.26 -80.673044193 1190.526 605.7815 -91.328381966 1190.526 661.4265 -102.74878085 1190.526 
737.3385 -114.63792834 1190.526 840.33 -126.0093806 1190.526 973.5064 -135.0172945 1190.526 
1130.74 -139.78385127 1190.526 1272.693 -140.06808583 1190.526 1382.742 -138.24154162 1190.526 
1473.356 -135.62155497 1190.526 1562.666 -132.18305302 1190.526 1663.42 -127.40369948 1190.526 
1787.385 -120.36900978 1190.526 1924.09 -111.31082743 1190.526 2037.944 -102.83343924 1190.526 
2400.946 -70.751224862 1190.526 2471.527 -63.660357711 1190.526 2570.292 -53.269945385 1190.526 
2690.735 -39.840528944 1190.526 2809.091 -25.795589675 1190.526 2891.43 -15.501799831 1190.526 
2948.647 -8.0836011033 1190.526 2988.597 -2.7706863475 1190.526 3018.403 1.2671560957 1190.526 
477.1918 73.453603914 1190.526 501.9109 85.4610439 1190.526 527.4382 95.487649357 1190.526 
554.1485 104.29490784 1190.526 583.5435 112.56496105 1190.526 617.963 120.82913806 1190.526 
660.4633 129.41724171 1190.526 718.2775 138.90772109 1190.526 802.3645 149.32356975 1190.526 
908.0698 158.19261422 1190.526 1047.707 164.61230336 1190.526 1238.151 166.31419334 1190.526 
1415.942 162.50819837 1190.526 1569.449 156.03128591 1190.526 1741.965 145.93701348 1190.526 
1893.514 135.0235344 1190.526 1998.484 126.48838194 1190.526 2155.702 112.35934727 1190.526 
2287.714 99.335044356 1190.526 2341.001 93.789855047 1190.526 2492.415 77.145211722 1190.526 
2597.858 64.776898834 1190.526 2723.46 49.193703874 1190.526 2831.095 35.077106534 1190.526 
2906.899 24.694833893 1190.526 2957.56 17.54495226 1190.526 2991.49 12.659195744 1190.526 
3018.699 8.6835907193 1190.526 2037.214 123.15299961 1190.526 1655.708 151.32107871 1190.526 
1725.403 -124.03593853 1190.526 1817.738 140.69964859 1190.526 1855.738 -116.00023586 1190.526 
2116.075 116.06589356 1190.526 2222.516 105.89589225 1190.526 1492.694 159.59653619 1190.526 
2119.498 -96.277783947 1190.526 2199.357 -89.485221921 1190.526 1941.625 131.20527574 1190.526 
2314.479 -79.062244394 1190.526 2436.346 83.461555373 1190.526 2388.573 88.701598258 1190.526 
1981.017 -107.17305026 1190.526 1972.24 128.69247246 1190.526 2076.584 119.66358873 1190.526 
[...]
POINT_DATA 1740
FIELD FieldData 1
Pressure 1 1740 double
3.1052874591 3.0173987075 3.0082178721 2.985351521 2.9799163749 2.9646974016 2.9749469879 2.9915282235 3.0235854305 
3.0387487946 3.0088016872 3.1090867652 3.030689109 3.0449856782 3.0620412455 3.0607124412 3.0785206371 3.0835681645 
3.1028636227 3.1093719905 3.1268383047 3.1350037677 3.1386631431 3.1419859518 3.1391089768 3.1354696866 3.1321669493 
3.1293614976 3.1241399584 3.1193537066 3.1026060457 3.0992035057 3.0933624135 3.0853288717 3.0742729559 3.0641020747 
3.0541531753 3.0455050423 3.0365505018 3.0738212998 3.0859714569 3.0979034925 3.1110731429 3.1180445791 3.1236215815 
3.1313947708 3.1390708442 3.1543029061 3.1665830012 3.1850578773 3.196795715 3.2022546569 3.2089567962 3.2155472536 
3.2192640033 3.2216356016 3.2222164023 3.2085400373 3.0837664235 3.0818095154 3.0766431903 3.0684754989 3.0595888787 
3.0491900213 3.0391121223 3.0314774583 3.02891277 3.2215443551 3.2128073922 3.131798713 3.2161334535 3.1272503567 
3.2219945236 3.2228834732 3.2080304672 3.1154340052 3.1121160682 3.2193509944 3.1072945582 3.0839681961 3.0822260928 
3.1218313092 3.2212775409 3.2223721016 3.2236016583 3.2251011922 3.1235907588 3.1027685926 3.0223939577 3.0279800695 
3.0012389556 3.0076434311 2.9879548817 2.9959545883 3.0073701356 3.0364044181 3.0560760413 3.0318743816 3.1070354131 
3.0524203704 3.0646910786 3.078625207 3.0831340805 3.0974645726 3.106957696 3.1191567572 3.1251468048 3.1333712618 
3.1388388007 3.1410027456 3.1410853964 3.1387486227 3.1344467813 3.1305545062 3.1261026939 3.1214445005 3.1170754387 
3.1002958971 3.0963955582 3.0905910207 3.0828906206 3.071794422 3.0614917243 3.0516545539 3.0438680272 3.0280901655 
3.08885411 3.110752518 3.1232598772 3.1315398494 3.141288437 3.1458909033 3.1512561078 3.1629953211 3.1742335366 
3.1815219061 3.192749366 3.2012014003 3.2057735826 3.2121295191 3.2158945052 3.218831993 3.2198900215 3.2224382134 
3.0804767484 3.0971736676 3.0860826322 3.0804659111 3.0727378172 3.0629203395 3.0530290359 3.0434825376 3.0367829714 
3.0374836857 3.2206402724 3.2145173101 3.1294037909 3.217482208 3.1236878698 3.222063486 3.2228525656 3.2097497467 
3.1131119222 3.1097551133 3.2191855665 3.1052231406 3.0893606783 3.0908900939 3.1195618547 3.219804639 3.2212456574 
3.2229660133 3.2138073713 3.0940735962 3.1011914088 3.0230064545 3.0275355037 3.0002929851 3.003855855 2.9864360033 
2.998374208 3.0122551114 3.0409581733 3.0629118904 3.0393191495 3.1054130241 3.0545349528 3.0733829595 3.091726971 
3.0987745475 3.1104184335 3.1177069246 3.1313731075 3.1377532227 3.1430846555 3.1458657977 3.1455487941 3.1434950883 
3.1395548079 3.1340974241 3.13019197 3.1249041926 3.1201919997 3.1157460833 3.0988968636 3.0951298261 3.0889713201 
3.0814741834 3.0700351578 3.0596713529 3.0500396701 3.0428585184 3.0274317952 3.0977035263 3.1194505699 3.1386913202 
3.148082173 3.1543253467 3.1650910727 3.1757775058 3.1800424433 3.189493892 3.1981735442 3.2054175334 3.2113374457 
3.2128182739 3.2184616429 3.2214603106 3.2219017223 3.2224693869 3.2253304526 3.0845765179 3.0889171571 3.0871198455 
3.0819544742 3.0744556135 3.0644991689 3.0551348767 3.045690874 3.0386924459 3.0408503457 3.2234083033 3.2206362782 
3.1279989714 3.2216067767 3.1224501033 3.2242237718 3.2237482887 3.2156545112 3.1117375252 3.1082136805 3.2219416173 
3.1037707134 3.0893021387 3.0903179349 3.1181578407 3.2221866479 3.2243051839 3.2256231553 3.0829782079 3.0840826011 
3.1001963907 3.0231848021 3.0274128803 2.9997996401 3.0035101215 2.9844837473 2.9951152165 3.0093963573 3.0418984532 
3.0642105835 3.0383099059 3.1043468955 3.0578650854 3.0751270732 3.0935501249 3.102690023 3.1141666824 3.1230043918 
3.1353497562 3.1421486451 3.1482684731 3.149525906 3.1483209599 3.1453131386 3.1404830413 3.1351144912 3.1304032152 
3.1247175831 3.1193193424 3.1146986131 3.0977236341 3.0940870958 3.0882671316 3.0807716294 3.0694650429 3.0591621309 
3.0497708427 3.0427140117 3.0272064681 3.1025551189 3.1261866467 3.1415748611 3.1537168871 3.1631379791 3.1731748543 
3.1861888127 3.1959531063 3.20466267 3.2125986648 3.2182860033 3.2235460408 3.2234144273 3.2280941707 3.2294928928 
3.228861817 3.2289729575 3.2392979617 3.0876559011 3.0873957056 3.0848448427 3.0803620332 3.0730817663 3.0636482353 
3.0547103298 3.0455682995 3.0384905378 3.0409115772 3.2293635565 3.2290638838 3.1278663426 3.2292068553 3.1218441989 
3.2293403996 3.0799810417 3.2255908909 3.1107868544 3.1071897899 3.2285479331 3.1024629478 3.0870417844 3.0877701702 
3.1170810754 3.2285549208 3.2297383158 3.1428806881 3.0833811024 3.0870397481 3.099295318 3.0228923835 3.0295931172 
3.0004510212 3.0081961299 2.9887034883 2.997433518 3.0109733594 3.0442295044 3.0659977031 3.0385095276 3.1033674325 
3.0601024489 3.0769753541 3.0939061159 3.1037721034 3.1157617591 3.1257519961 3.1377570921 3.1452862185 3.1509719477 
3.1515754145 3.1493052032 3.1455614401 3.1400469977 3.134521278 3.1294268206 3.1239060326 3.1183556169 3.1134462017 
3.0970489648 3.0933268032 3.0876022322 3.0801539466 3.0691201561 3.058964795 3.0497809519 3.0426352321 3.0278595204 
3.1045733447 3.1286118499 3.1435912907 3.1574289518 3.1658432744 3.1779256575 3.190449192 3.1966937015 3.2090393488 
3.2207759697 3.2288144216 3.2334131368 3.23403244 3.2377796126 3.2384093646 3.2368291861 3.2365578953 3.1884841389 
3.0858524657 3.0867249508 3.0830811893 3.078579146 3.0712403652 3.0620331367 3.0532191405 3.0444148371 3.037304632 
3.0403931608 3.2365624172 3.2383395648 3.1270048794 3.2377017961 3.1210108605 3.2355308795 3.0845476369 3.2359159383 
3.1097798884 3.1062856998 3.2363947476 3.1015322946 3.0852641378 3.0863251297 3.1160491761 3.2362389257 3.2365177333 
3.0710808897 3.0848420443 3.0865504049 3.0984653796 3.022205951 3.0309114162 3.0022872406 3.0105233984 2.9896401791 
2.9992014014 3.0127548225 3.0451906173 3.0681976753 3.039742905 3.1024332684 3.0614936642 3.078662156 3.095021458 
3.1051754513 3.117252585 3.1278558866 3.1397367734 3.1475455002 3.1533317239 3.1533064076 3.1500659715 3.1455702741 
3.1394403546 3.1337287579 3.1284619155 3.1230870117 3.1173802381 3.112376254 3.0962442006 3.0925396261 3.0869924499 
3.0795232665 3.0686520103 3.0585378867 3.0495847287 3.0423408013 3.0286420176 3.1062769799 3.1309974159 3.1457323953 
3.1598694252 3.1689749771 3.1813881679 3.1950408677 3.2023989673 3.2149489275 3.2262127224 3.2365724123 3.2411974121 
3.2431525068 3.2473121265 3.24785283 3.2458210276 3.2450200218 3.0871317446 3.0834176839 3.0831441015 3.0804898139 
3.0762788218 3.0693686759 3.0604271757 3.0518032877 3.0432361425 3.0363213489 3.0392065971 3.2448367969 3.2480515098 
3.1261809069 3.2470418762 3.1201563876 3.2466226239 3.0823350284 3.2454095443 3.1088141673 3.1053879817 3.245087189 
3.1005756421 3.082338505 3.0829929026 3.1149934514 3.2447322771 3.244449144 3.0773983625 3.0828170771 3.0824913885 
3.0977754408 3.0222242066 3.0313346043 3.0027328634 3.0107443936 2.9892331701 2.999149719 3.0128692856 3.0454599238 
3.0687258014 3.0403840304 3.1017514346 3.0622315171 3.0797414338 3.0960493198 3.106404153 3.1185386288 3.1294881848 
3.1412557485 3.1491253468 3.1551660108 3.1545511796 3.1506160604 3.1454225399 3.1389795723 3.1332359725 3.1278294258 
3.1224156536 3.116763024 3.1116968367 3.0955768682 3.0918386502 3.0864368669 3.078940877 3.0681922684 3.0581543466 
3.0493875314 3.0420608814 3.0293568649 3.1067696165 3.1319713293 3.1468723899 3.1613046514 3.1704302906 3.183176416 
3.1969893306 3.2051908022 3.2181713874 3.2308017747 3.2419668888 3.248415707 3.2511416172 3.2568521112 3.2578268536 
3.255778208 3.2545586736 3.0798910135 3.0817640808 3.081145644 3.0788110424 3.0748700711 3.0681572083 3.0593623248 
3.0508999546 3.042583381 3.0357153673 3.0388442464 3.2542020349 3.2571418637 3.1255456271 3.2572302268 3.1194981993 
3.2641768813 3.082440757 3.2537855127 3.1081155048 3.1047076639 3.2549043172 3.0998156253 3.0802009836 3.0808126088 
3.1142190363 3.2542802016 3.2537078721 3.0820615678 3.0819260996 3.0816135304 3.0972586892 3.0226171832 3.031832494 
3.0031162765 3.0108057288 2.9893780266 2.9991966093 3.0127445703 3.0457612866 3.0689923517 3.0409308586 3.1012301833 
3.0628633512 3.0804573537 3.0967489376 3.1072855216 3.1195215266 3.1307492343 3.1423821362 3.1501665429 3.1566937446 
3.1552455146 3.150693109 3.1450891776 3.1385163791 3.1327822241 3.1272851461 3.12194396 3.1161960598 3.1111115208 
3.0950659674 3.0913138381 3.0860452013 3.0785461337 3.0679768808 3.0579945744 3.0493839613 3.0419530917 3.0299263225 
3.1068956727 3.1323012051 3.1474816051 3.1620152527 3.1713142458 3.1840998461 3.1978871053 3.2067016577 3.2199499322 
3.2333760342 3.2450436892 3.2526784858 3.2572577231 3.2633996046 3.2652048227 3.2647740253 3.2637455335 3.0789356744 
3.0808842054 3.0801440245 3.0774148168 3.0736599612 3.0672295272 3.058629317 3.0503971267 3.0423143362 3.0355260335 
3.0387752953 3.263388144 3.2652817335 3.1250880688 3.2652899079 3.1189376356 3.2713619579 3.0815024327 3.2605472307 
3.1075849995 3.1041593631 3.2642162611 3.0992667785 3.0789489887 3.0795683969 3.1136030118 3.2635720269 3.2629584876 
3.0802241618 3.0810454829 3.0806465198 3.0969226186 3.0233242903 3.0323318593 3.0035654282 3.0110461337 2.9896090742 
2.9994883614 3.0128728916 3.0460775238 3.069362268 3.0414827862 3.1008449049 3.0634254645 3.0810866844 3.0973326668 
3.108043919 3.1203743083 3.13187979 3.1432907867 3.1511866622 3.1577825589 3.1558778768 3.1507753519 3.1448846292 
3.1382256048 3.1324601352 3.1269355695 3.1215615219 3.1158200105 3.110746383 3.094740373 3.0909795329 3.0858075063 
3.0783128404 3.067922464 3.0579008008 3.0493998066 3.0419244736 3.0303675842 3.1070959509 3.1325704229 3.14802143 
3.1625578826 3.1719425184 3.1847339592 3.1984267592 3.2076181363 3.2211051049 3.2349047815 3.246926219 3.2558905419 
3.2612855166 3.2683093352 3.272073345 3.271527204 3.2715079952 3.0842845582 3.0795799129 3.0781146085 3.0759715884 
3.0726755603 3.0666452288 3.0580898675 3.0500340577 3.0421733281 3.0354746586 3.038709984 3.2717611665 3.2703701817 
3.1247726159 3.2719003812 3.1186146582 3.2747322049 3.0793963802 3.2649985378 3.1072573065 3.1038012051 3.2714451152 
3.0988678333 3.0776114356 3.0778193917 3.1131549752 3.27111235 3.2721796175 3.0811799243 3.0790027835 3.078269021 
3.0967610007 3.0241818605 3.0327219318 3.003941927 3.0112333389 2.9898142368 2.9998102951 3.0131181183 3.0464158048 
3.0697368367 3.0418761171 3.1006559236 3.0637604269 3.0816494666 3.0979401079 3.1088831873 3.1211042377 3.1328436596 
3.1440211015 3.152090816 3.1587930073 3.1564835972 3.1510565764 3.1449643775 3.1382544706 3.1324315018 3.126863049 
3.1212925951 3.115625433 3.1105620156 3.0945763451 3.090805381 3.085720208 3.0781919337 3.0680006082 3.0579263999 
3.0494886903 3.0419965432 3.0309815093 3.1073739966 3.1328359659 3.1485942069 3.1630571959 3.1725575061 3.1852777445 
3.1988334651 3.2083405651 3.2220359296 3.2359561483 3.2482375386 3.2575737652 3.2638992972 3.2715603892 3.2753738387 
3.2767501986 3.2770610771 3.0909931989 3.0794691859 3.0778401772 3.0755721231 3.0721386311 3.0662386765 3.057552749 
3.0495717128 3.0418534313 3.0352743569 3.0383177716 3.2772390796 3.2741041661 3.1245725646 3.2766092122 3.1184472323 
3.2755173182 3.0776743132 3.2679996021 3.107090569 3.1035976053 3.2768459459 3.09863385 3.0772282694 3.0776665693 
3.1129335489 3.2767866127 3.2774149954 3.0821091883 3.0785840944 3.0781820416 3.0967062518 3.0244922566 3.0330098125 
3.0042135428 3.0113615356 2.990073767 3.0001773509 3.0134079157 3.0468195517 3.0701345924 3.0420217399 3.1005209651 
3.0638602609 3.0817497935 3.0980838109 3.1092489383 3.1214627215 3.1334273055 3.1445875268 3.1528071078 3.1596256252 
3.1571461448 3.1515186258 3.1452347854 3.1385087293 3.1325941217 3.1269829985 3.1213250612 3.1156834439 3.1105595769 
3.0944917707 3.0907653775 3.0857430932 3.0781775158 3.0681532542 3.0580572957 3.0496756079 3.0421501407 3.031580227 
3.1077484459 3.1331458136 3.149134478 3.1635266812 3.1731286758 3.1857608296 3.1991971413 3.208946496 3.222847973 
3.236775786 3.2492924711 3.25879563 3.2653887695 3.2737474177 3.2779665281 3.2796626568 3.2804972296 3.1174485525 
3.0787759575 3.0777579056 3.0744233017 3.0706811535 3.0646977705 3.0560025861 3.0481104581 3.0405771192 3.034395631 
3.037009758 3.2810397857 3.2763874582 3.1246342873 3.2792766828 3.1184963206 3.2798084129 3.079287917 3.2696718915 
3.1071395113 3.1035543955 3.2801545742 3.0985345563 3.0761302208 3.0769951987 3.112945487 3.2802388463 3.2814263002 
3.0828813213 3.0787042194 3.078708946 3.0967607981 3.0239179532 3.0331683027 3.0043884233 3.011415043 2.9903687225 
3.0007234786 3.0138030703 3.0473323193 3.0706185889 3.0419578145 3.1006746934 3.0637334995 3.0815869258 3.0980211879 
3.1094238232 3.1216619762 3.1337364008 3.1451166643 3.1533053031 3.1603554929 3.1578469752 3.1522230156 3.1458012877 
3.139040227 3.1329899744 3.1273318941 3.1217705792 3.1160390606 3.1108353311 3.0945946654 3.0908694644 3.0858607735 
3.0782802565 3.0683068764 3.0582030256 3.0498395368 3.0422930442 3.0319816087 3.1083344415 3.1336026173 3.149844687 
3.1641997603 3.1738505781 3.1864141276 3.199683422 3.2096295539 3.2237758664 3.2375834459 3.250244176 3.2598964126 
3.266480992 3.2750170336 3.2795537898 3.2815998068 3.2827278896 3.1376771365 3.0742239724 3.0739829732 3.0711349241 
3.0671984195 3.0612566258 3.0529605433 3.0451755426 3.0377476959 3.0319170588 3.0341717542 3.283393661 3.2779832217 
3.1250675383 3.2811102182 3.1188545637 3.2829720854 3.0728879539 3.2707630188 3.1073665465 3.103895962 3.2821702777 
3.0985643992 3.072951769 3.0733602603 3.1132706719 3.2823619289 3.283884005 3.0788037411 3.0741839902 3.0742873501 
3.0970395873 3.0229195509 3.0332101402 3.0044192801 3.0113747368 2.9907134456 3.0013922157 3.0142691545 3.0480674312 
3.0712743503 3.0416911536 3.100956799 3.0632577906 3.08135235 3.0979126133 3.1094845403 3.1217411583 3.1339505145 
3.1455237357 3.154457448 3.1609629031 3.1587061069 3.1532443398 3.1467312313 3.139909167 3.1337149934 3.1279568225 
3.1224765928 3.1165604675 3.1112895632 3.0948814823 3.0911278569 3.0860805463 3.0784610399 3.0684784871 3.0583492931 
3.0499675545 3.0424112029 3.0322807513 3.1092645873 3.1343600119 3.150836082 3.1652117525 3.174903298 3.1873871242 
3.2005196696 3.210572375 3.2250001836 3.2385740044 3.2512511496 3.2610416292 3.2675134755 3.275956801 3.2808866066 
3.2830091968 3.2841838717 3.135360574 3.0686281777 3.068309067 3.066741847 3.0629967603 3.0572628191 3.0494089204 
3.041807528 3.034664999 3.0292361678 3.0311144722 3.2849959821 3.2791326072 3.1257722601 3.2824338283 3.1194006108 
3.2844883461 3.0688110993 3.2717042921 3.1077814335 3.104243095 3.2836074987 3.0988404023 3.0682281006 3.0681168168 
3.1137609682 3.2837874136 3.2853846902 3.0736774613 3.0694320545 3.0687779072 3.0974525137 3.0227647095 3.0333034379 
3.0043481875 3.011257429 2.9912243262 3.002213931 3.0148637738 3.0495370299 3.0723870926 3.0410209863 3.1014057864 
3.0625873355 3.080898756 3.0973378159 3.1089492981 3.1213703542 3.1337552621 3.1457945584 3.1553840177 3.1616847868 
3.1599721893 3.1546906912 3.1480220223 3.141053351 3.1346622566 3.12873881 3.1232008454 3.1171719859 3.1118486357 
3.0952651332 3.0914751194 3.0863588783 3.0787164675 3.0686685213 3.0585205075 3.0500909037 3.0425540306 3.0323212386 
3.1106835422 3.1356239979 3.1520424958 3.1664861609 3.1762037055 3.1886580927 3.2017215849 3.211854802 3.2265321286 
3.2397767013 3.2524770753 3.2622041939 3.2685825488 3.2768920766 3.2819777708 3.2841915714 3.2854167606 3.1073754464 
3.0661281223 3.0656434735 3.064295976 3.0609317144 3.0554831187 3.0478120873 3.0402901256 3.0333981487 3.0281654691 
3.030018444 3.2862561206 3.2801739266 3.1265742068 3.2835759865 3.120129553 3.2858436712 3.0672140062 3.2726625982 
3.1081794134 3.104612549 3.2848128611 3.0992679906 3.0658025459 3.0656660353 3.1143341112 3.2849802083 3.2867903473 
3.0711552785 3.0670879026 3.0659707885 3.0980688334 3.0235100422 3.0333277268 3.0040371553 3.0114088644 2.9918190188 
3.0030840302 3.0155390265 3.0512465301 3.0738247234 3.0403707751 3.10214388 3.06176506 3.080306726 3.0962538153 
3.1077345107 3.1205505917 3.1328705854 3.1460037037 3.155579883 3.1626406427 3.1615000751 3.1564989616 3.1496636273 
3.1424203886 3.1357065784 3.1295072204 3.1240558637 3.1178208707 3.1125591766 3.0958706451 3.0920408787 3.0868005367 
3.0791310698 3.0689648693 3.0587651913 3.0502555586 3.0426946101 3.0319235917 3.1123418669 3.1372549215 3.1534042753 
3.1678731376 3.1776132681 3.1899077476 3.2030405124 3.2132626164 3.2280690737 3.2410630748 3.2535833665 3.2635963735 
3.2698795913 3.2779943602 3.283495856 3.2860400723 3.2873337422 3.0746723934 3.0669086609 3.0666199806 3.0656328625 
3.0625167259 3.0573485762 3.0495749269 3.0420064656 3.0351310155 3.0299960447 3.0313359398 3.2882588343 3.28131062 
3.1274388118 3.2851478766 3.1209359101 3.2896256602 3.0664641665 3.2738148042 3.1089239731 3.1053561725 3.2864483842 
3.0999783021 3.0670245776 3.0671648722 3.1151028611 3.2868305267 3.2876298546 3.0654064235 3.0667633971 3.0667461534 
3.0988689497 3.0249029261 3.0316169463 3.0026250291 3.0105848602 2.9912375737 3.0027176481 3.0155775174 3.0516366659 
3.0747466994 3.0391373867 3.1030820566 3.0602283149 3.0790597255 3.0950008439 3.1065356611 3.1196006879 3.1316079078 
3.1462550508 3.1554740795 3.1636124812 3.1639710509 3.1590759402 3.1520495994 3.1442174744 3.1370296604 3.1306168654 
3.1250466456 3.119573403 3.1137323225 3.0966413428 3.0926987913 3.0874010123 3.0796242862 3.0692867818 3.0589223215 
3.0503354941 3.0427291496 3.0307068339 3.1133779114 3.1384742363 3.1543142559 3.168543233 3.1784463595 3.1909550887 
3.2041658769 3.2145016141 3.2292033676 3.2423520199 3.2553464148 3.2649371817 3.2715602915 3.2799110981 3.2866056004 
3.2889551204 3.2890526466 3.0690730045 3.0710502538 3.0710896422 3.0697031877 3.0662014595 3.061260353 3.0532662753 
3.0457291283 3.0385176556 3.0332753174 3.0345889956 3.289204158 3.2835307389 3.1286038485 3.2880713661 3.1218669276 
3.3013907079 3.0683032304 3.2754053618 3.1101442496 3.1063165232 3.289176473 3.1008425863 3.071198139 3.0711924761 
3.1164597559 3.2891470335 3.3001233914 3.065556863 3.0695047361 3.0710382111 3.0994825248 3.0256128083 3.0300466404 
2.9995786985 3.0055371015 2.9902976688 3.0009001605 3.0145586958 3.0506015108 3.0743147435 3.0376820686 3.1037316692 
3.0590428571 3.0781570536 3.0947937147 3.1058956214 3.1192638771 3.1304703157 3.1476717504 3.1572012549 3.1665127381 
3.1690317012 3.1633100239 3.155581901 3.1463445999 3.1386176054 3.1318425051 3.1255582687 3.1194234782 3.1147061996 
3.0975032047 3.0933473954 3.0880080146 3.0802995418 3.0695495656 3.0588957928 3.0501505292 3.0423256924 3.0289972268 
3.1131089771 3.1383441893 3.154880923 3.1696023764 3.1795558649 3.1918736668 3.2050754524 3.216202017 3.231686797 
3.2453230968 3.2584141878 3.2710963589 3.27555748 3.2833901418 3.2886639398 3.2892175344 3.2877445256 3.0663928947 
3.0736481421 3.0728495505 3.0733005429 3.0703457363 3.0649098617 3.0566399533 3.0493748065 3.0421139718 3.0364035825 
3.0386126456 3.2904826356 3.2867515863 3.1290784999 3.2889747458 3.1225167008 3.0546413562 3.0708330345 3.2789204741 
3.1103931043 3.1068571675 3.2886923411 3.1015659674 3.0741055548 3.0740349113 3.1172639854 3.2882412623 3.2053369077 
3.0656178887 3.0721017992 3.0737344172 3.0996625224 3.0286746971 3.0323414172 3.0031727984 3.006412646 2.9902365098 
3.0011750703 3.0158950076 3.0500458568 3.0730010763 3.0411294328 3.1027261438 3.0623325282 3.0820113734 3.0967606797 
3.1087119782 3.1220786805 3.1341188496 3.1529794885 3.1727217294 3.1742481199 3.1739894902 3.1667149395 3.1562976767 
3.1459839841 3.1381042861 3.1306271574 3.1246062525 3.1178643758 3.1125798677 3.0963003692 3.0939340936 3.0884121295 
3.0788676135 3.0693911228 3.0581488076 3.0491810163 3.0404235837 3.0274437801 3.1094906771 3.136961261 3.1596708305 
3.1739957883 3.1828685348 3.201652344 3.2104473724 3.2212172249 3.2386608467 3.2516055832 3.267435476 3.2755290954 