# vtk DataFile Version 4.2
vtk output
ASCII
DATASET POLYDATA
POINTS 7263 float
1531.17 -3434.16 0 1553.84 -3445.19 0 1573.09 -3434.16 0 
1512.54 -3417.16 0 1516.84 -3424.17 0 1590.84 -3424 0 
1602.78 -3417.16 0 1502.12 -3400.16 0 1627.84 -3402.81 0 
1632.47 -3400.16 0 1491.69 -3383.16 0 1662.16 -3383.15 0 
1481.26 -3366.16 0 1664.85 -3381.62 0 1691.85 -3366.15 0 
1470.84 -3349.16 0 1479.84 -3363.84 0 1701.85 -3360.43 0 
1721.54 -3349.15 0 1460.41 -3332.16 0 1738.85 -3339.24 0 
1751.23 -3332.15 0 1449.98 -3315.16 0 1775.85 -3318.05 0 
1780.92 -3315.15 0 1439.56 -3298.16 0 1442.84 -3303.52 0 
1810.61 -3298.15 0 1429.13 -3281.15 0 1812.86 -3296.86 0 
1840.3 -3281.14 0 1418.7 -3264.15 0 1849.86 -3275.67 0 
1869.99 -3264.14 0 1408.28 -3247.15 0 1886.86 -3254.48 0 
1899.68 -3247.14 0 1397.85 -3230.15 0 1405.85 -3243.19 0 
1923.86 -3233.29 0 1929.37 -3230.14 0 1387.42 -3213.15 0 
1959.06 -3213.14 0 1377 -3196.15 0 1960.86 -3212.1 0 
1988.75 -3196.13 0 1366.57 -3179.15 0 1368.85 -3182.87 0 
1997.87 -3190.91 0 2018.44 -3179.13 0 1356.14 -3162.15 0 
2034.87 -3169.73 0 2048.13 -3162.13 0 1345.72 -3145.15 0 
2071.87 -3148.54 0 2077.82 -3145.13 0 1335.29 -3128.15 0 
2107.51 -3128.13 0 1324.86 -3111.15 0 1331.85 -3122.54 0 
2108.87 -3127.35 0 2137.2 -3111.13 0 1314.44 -3094.15 0 
2145.88 -3107.06 0 2182.88 -3096.89 0 2199.43 -3094.12 0 
1304.01 -3077.15 0 2219.88 -3090.71 0 2256.88 -3084.52 0 
2293.88 -3078.34 0 2299.28 -3077.12 0 1293.58 -3060.15 0 
1294.85 -3062.22 0 2327.57 -3060.12 0 1283.16 -3043.14 0 
2330.88 -3054.44 0 2333.05 -3043.12 0 1272.73 -3026.14 0 
2336.3 -3026.11 0 1262.3 -3009.14 0 2339.55 -3009.11 0 
1251.88 -2992.14 0 1257.86 -3001.89 0 2342.8 -2992.11 0 
1241.45 -2975.14 0 2346.05 -2975.11 0 1231.02 -2958.14 0 
2349.3 -2958.11 0 1220.6 -2941.14 0 1220.86 -2941.57 0 
2352.55 -2941.11 0 1210.17 -2924.14 0 2355.8 -2924.11 0 
1175.25 -2907.14 0 1183.86 -2911.24 0 2359.05 -2907.11 0 
1128.22 -2890.14 0 1146.86 -2896.88 0 2362.3 -2890.11 0 
1081.19 -2873.14 0 1109.86 -2883.5 0 2365.55 -2873.1 0 
1034.16 -2856.14 0 1035.86 -2856.75 0 1072.86 -2870.13 0 
2367.9 -2860.86 0 2368.8 -2856.1 0 992.631 -2839.14 0 
998.86 -2842.78 0 2372.06 -2839.1 0 966.236 -2822.14 0 
2375.31 -2822.1 0 954.143 -2805.14 0 961.86 -2819.32 0 
2378.56 -2805.1 0 945.141 -2788.14 0 2381.81 -2788.1 0 
936.399 -2771.14 0 2385.06 -2771.1 0 927.906 -2754.14 0 
2388.31 -2754.1 0 920.679 -2737.14 0 924.863 -2747.93 0 
2391.56 -2737.1 0 914.086 -2720.14 0 2394.81 -2720.1 0 
907.493 -2703.13 0 2398.06 -2703.09 0 900.899 -2686.13 0 
2401.31 -2686.09 0 894.306 -2669.13 0 2404.56 -2669.09 0 
887.713 -2652.13 0 887.868 -2652.53 0 2404.91 -2667.28 0 
2407.81 -2652.09 0 881.12 -2635.13 0 2411.06 -2635.09 0 
874.526 -2618.13 0 2414.31 -2618.09 0 867.933 -2601.13 0 
2417.56 -2601.09 0 861.34 -2584.13 0 2420.81 -2584.09 0 
854.747 -2567.13 0 2424.07 -2567.09 0 848.153 -2550.13 0 
850.873 -2557.14 0 2427.32 -2550.08 0 841.56 -2533.13 0 
2430.57 -2533.08 0 834.967 -2516.13 0 2433.82 -2516.08 0 
828.374 -2499.12 0 2437.07 -2499.08 0 821.78 -2482.12 0 
2440.32 -2482.08 0 815.187 -2465.12 0 2441.92 -2473.7 0 
2443.57 -2465.08 0 808.594 -2448.12 0 813.877 -2461.75 0 
2446.82 -2448.08 0 802.001 -2431.12 0 2450.07 -2431.08 0 
795.408 -2414.12 0 2453.32 -2414.08 0 788.814 -2397.12 0 
2456.57 -2397.07 0 782.221 -2380.12 0 2459.82 -2380.07 0 
775.628 -2363.12 0 776.882 -2366.35 0 2463.07 -2363.07 0 
769.034 -2346.12 0 2466.32 -2346.07 0 762.441 -2329.12 0 
2469.57 -2329.07 0 755.848 -2312.12 0 2472.83 -2312.07 0 
749.255 -2295.11 0 2476.08 -2295.07 0 742.662 -2278.11 0 
2478.93 -2280.13 0 2479.33 -2278.07 0 736.068 -2261.11 0 
739.886 -2270.96 0 2482.58 -2261.07 0 729.475 -2244.11 0 
2485.83 -2244.06 0 722.882 -2227.11 0 2489.08 -2227.06 0 
716.289 -2210.11 0 2494.7 -2210.06 0 709.695 -2193.11 0 
2506.25 -2193.06 0 703.307 -2176.11 0 2515.94 -2178.82 0 
2517.82 -2176.06 0 700.679 -2159.11 0 702.891 -2173.63 0 
2529.4 -2159.06 0 698.089 -2142.11 0 2540.97 -2142.06 0 
695.499 -2125.11 0 2552.54 -2125.06 0 692.908 -2108.11 0 
2551.67 -2108.05 0 690.318 -2091.1 0 2550.35 -2091.05 0 
687.728 -2074.1 0 2549.39 -2074.05 0 685.138 -2057.1 0 
2548.03 -2057.05 0 682.548 -2040.1 0 2546.67 -2040.05 0 
679.957 -2023.1 0 2545.31 -2023.05 0 677.367 -2006.1 0 
2543.95 -2006.05 0 674.777 -1989.1 0 2542.59 -1989.05 0 
672.187 -1972.1 0 2541.24 -1972.05 0 669.597 -1955.1 0 
2539.88 -1955.05 0 667.006 -1938.1 0 2538.52 -1938.05 0 
664.416 -1921.09 0 665.904 -1930.86 0 2537.16 -1921.04 0 
661.826 -1904.09 0 2535.8 -1904.04 0 659.236 -1887.09 0 
2534.44 -1887.04 0 656.864 -1870.09 0 2533.08 -1870.04 0 
654.688 -1853.09 0 2531.72 -1853.04 0 652.641 -1836.09 0 
2530.37 -1836.04 0 650.712 -1819.09 0 2529.01 -1819.04 0 
648.891 -1802.09 0 2527.65 -1802.04 0 647.17 -1785.09 0 
2526.29 -1785.04 0 645.529 -1768.09 0 2524.93 -1768.04 0 
644.383 -1751.09 0 2523.57 -1751.03 0 643.237 -1734.08 0 
2522.21 -1734.03 0 642.09 -1717.08 0 2520.85 -1717.03 0 
640.896 -1700.08 0 2519.5 -1700.03 0 639.186 -1683.08 0 
2518.14 -1683.03 0 637.464 -1666.08 0 2516.78 -1666.03 0 
635.742 -1649.08 0 2515.97 -1655.93 0 2515.42 -1649.03 0 
633.748 -1632.08 0 2514.06 -1632.03 0 631.762 -1615.08 0 
2512.7 -1615.03 0 630.175 -1598.08 0 2511.34 -1598.03 0 
628.855 -1581.08 0 628.924 -1581.75 0 2510.18 -1581.03 0 
627.133 -1564.07 0 2510.63 -1564.02 0 625.412 -1547.07 0 
2511.73 -1547.02 0 -481.104 -1541.91 0 -506.114 -1530.1 0 
-444.102 -1535.16 0 -429.76 -1530.1 0 620.36 -1530.07 0 
1297.06 -1530.05 0 1331.95 -1540.3 0 1368.95 -1541.19 0 
1405.95 -1542.09 0 1442.95 -1542.98 0 1479.95 -1543.88 0 
1516.95 -1544.77 0 1553.95 -1545.67 0 1590.95 -1546.51 0 
1612.71 -1530.05 0 2512.83 -1530.02 0 -518.104 -1524.44 0 
-542.115 -1513.1 0 -407.101 -1522.11 0 -381.531 -1513.1 0 
615.969 -1513.07 0 1255.53 -1513.06 0 1257.94 -1515.52 0 
1294.94 -1529.35 0 1627.95 -1514.39 0 1629.26 -1513.05 0 
2513.93 -1513.02 0 -555.104 -1506.97 0 -578.115 -1496.1 0 
-370.099 -1509.07 0 -333.302 -1496.1 0 612.419 -1496.07 0 
1237 -1496.05 0 1645.81 -1496.04 0 2515.03 -1496.02 0 
-592.104 -1489.5 0 -614.116 -1479.1 0 -333.097 -1496.02 0 
-296.095 -1482.98 0 -285.072 -1479.09 0 609.49 -1479.07 0 
1216.25 -1479.05 0 1220.95 -1483.64 0 1662.36 -1479.04 0 
2515.98 -1481.41 0 2516.14 -1479.02 0 -629.104 -1472.03 0 
-650.117 -1462.1 0 -259.093 -1469.94 0 -236.844 -1462.09 0 
607.033 -1462.07 0 1198.82 -1462.05 0 1664.96 -1476.37 0 
1679.95 -1462.04 0 2517.24 -1462.02 0 -666.104 -1454.55 0 
-686.117 -1445.1 0 -222.092 -1456.89 0 -188.614 -1445.09 0 
604.315 -1445.07 0 1181.39 -1445.05 0 1183.95 -1447.55 0 
1697.26 -1445.04 0 2518.34 -1445.02 0 -703.103 -1434.45 0 
-708.771 -1428.1 0 -185.09 -1443.85 0 -148.088 -1434.15 0 
-111.087 -1435.31 0 -74.0866 -1438.03 0 -62.0134 -1428.09 0 
600.496 -1428.07 0 1163.96 -1428.05 0 1701.96 -1440.33 0 
1715.89 -1428.04 0 2519.44 -1428.02 0 -721.262 -1411.1 0 
-44.9681 -1411.08 0 596.678 -1411.07 0 1146.54 -1411.05 0 
1146.95 -1411.45 0 1735.16 -1411.04 0 2520.54 -1411.01 0 
-733.752 -1394.1 0 -37.0835 -1402.94 0 -31.5022 -1394.08 0 
592.859 -1394.07 0 1129.11 -1394.05 0 1738.96 -1407.68 0 
1754.42 -1394.03 0 2521.64 -1394.01 0 -740.102 -1385.46 0 
-746.243 -1377.1 0 -20.206 -1377.08 0 588.748 -1377.07 0 
591.934 -1389.95 0 1111.68 -1377.05 0 1773.69 -1377.03 0 
2522.74 -1377.01 0 -758.734 -1360.1 0 -7.8627 -1360.08 0 
585.117 -1360.06 0 1088.98 -1360.05 0 1109.95 -1375.48 0 
1775.97 -1374.2 0 1782 -1360.03 0 2522.87 -1360.01 0 
-771.225 -1343.1 0 -0.0794137 -1350.11 0 4.75946 -1343.08 0 
581.403 -1343.06 0 1064.11 -1343.05 0 1072.95 -1349.09 0 
1788.2 -1343.03 0 2522.92 -1343.01 0 -777.099 -1335.1 0 
-783.715 -1326.1 0 16.455 -1326.08 0 577.584 -1326.06 0 
1039.23 -1326.05 0 1794.4 -1326.03 0 2522.13 -1326.01 0 
-796.206 -1309.1 0 28.1505 -1309.08 0 572.164 -1309.06 0 
1014.36 -1309.05 0 1035.95 -1323.8 0 1800.61 -1309.03 0 
2518.95 -1309.01 0 -808.697 -1292.1 0 36.9248 -1296.32 0 
39.8461 -1292.07 0 562.562 -1292.06 0 993.435 -1292.05 0 
998.951 -1298.52 0 1806.81 -1292.03 0 2515.99 -1293.22 0 
2515.75 -1292.01 0 -814.098 -1284.75 0 -821.188 -1275.1 0 
51.5416 -1275.07 0 556.738 -1275.06 0 978.888 -1275.05 0 
1812.97 -1275.13 0 1813.01 -1275.03 0 2512.58 -1275.01 0 
-833.679 -1258.1 0 63.2371 -1258.07 0 552.376 -1258.06 0 
554.94 -1268.71 0 964.268 -1258.05 0 1819.56 -1258.02 0 
2509.4 -1258.01 0 -846.169 -1241.1 0 73.9289 -1242.53 0 
74.9326 -1241.07 0 548.288 -1241.06 0 952.089 -1241.05 0 
961.952 -1255.36 0 1829.73 -1241.02 0 2506.22 -1241.01 0 
-851.096 -1234.39 0 -858.66 -1224.1 0 86.6282 -1224.07 0 
544.207 -1224.06 0 940.375 -1224.05 0 1839.93 -1224.02 0 
2503.03 -1224 0 -871.151 -1207.09 0 98.3238 -1207.07 0 
540.133 -1207.06 0 928.661 -1207.05 0 1849.98 -1207.26 0 
1850.12 -1207.02 0 2499.85 -1207 0 -883.642 -1190.09 0 
110.019 -1190.07 0 536.067 -1190.06 0 917.217 -1190.05 0 
924.954 -1201.67 0 1860.32 -1190.02 0 2496.67 -1190 0 
-888.094 -1184.03 0 -896.132 -1173.09 0 110.933 -1188.74 0 
117.534 -1173.07 0 532.008 -1173.05 0 906.654 -1173.04 0 
1870.51 -1173.02 0 2493.58 -1173 0 -908.623 -1156.09 0 
121.222 -1156.06 0 527.957 -1156.05 0 896.913 -1156.04 0 
1880.71 -1156.02 0 2492.02 -1156 0 -922.964 -1139.09 0 
122.688 -1139.06 0 523.912 -1139.05 0 887.851 -1139.04 0 
887.957 -1139.24 0 1886.98 -1145.56 0 1890.54 -1139.02 0 
2491.1 -1139 0 -925.092 -1137.31 0 -943.252 -1122.09 0 
124.154 -1122.06 0 519.875 -1122.05 0 878.79 -1122.04 0 
1898.9 -1122.01 0 2490.47 -1122 0 -962.091 -1106.3 0 
-963.539 -1105.09 0 125.62 -1105.06 0 515.779 -1105.05 0 
517.948 -1113.93 0 869.728 -1105.04 0 1906.21 -1105.01 0 
2489.84 -1105 0 -983.827 -1088.09 0 127.086 -1088.06 0 
511.623 -1088.05 0 860.666 -1088.04 0 1912.22 -1088.01 0 
2489.21 -1088 0 -999.09 -1075.3 0 -1002 -1071.09 0 
128.552 -1071.06 0 507.468 -1071.05 0 851.605 -1071.04 0 
1917.79 -1071.01 0 2488.58 -1071 0 -1006.77 -1054.09 0 
135.039 -1054.06 0 503.313 -1054.05 0 842.543 -1054.04 0 
850.96 -1069.83 0 1923.36 -1054.01 0 2487.95 -1053.99 0 
[...]
POINT_DATA 7263
SCALARS Pressure double
LOOKUP_TABLE default
3.0932710339 3.0932710339 3.0932710339 3.0932710339 3.0932710339 3.0932710339 3.0932710339 3.0932710339 3.0932710339 
3.0932710339 3.0932710339 3.0932710339 3.0932710339 3.0932710339 3.0932710339 3.0932710339 3.0932710339 3.0932710339 
3.0932710339 3.0932710339 3.0932710339 3.0932710339 3.0932710339 3.0932710339 3.0932710339 3.0932710339 3.0932710339 
3.0932710339 3.0932710339 3.0932710339 3.0932710339 3.0932710339 3.0932710339 3.0932710339 3.0932710339 3.0932710339 
3.0932710339 3.0932710339 3.0932710339 3.0932710339 3.0932710339 3.0932710339 3.0932710339 3.0932710339 3.0932710339 
3.0932710339 3.0932710339 3.0932710339 3.0932710339 3.0932710339 3.0932710339 3.0932710339 3.0932710339 3.0932710339 
3.0932710339 3.0932710339 3.0932710339 3.0932710339 3.0932710339 3.0932710339 3.0932710339 3.0932710339 3.0932710339 
3.0932710339 3.0932710339 3.0932710339 3.0932710339 3.0932710339 3.0932710339 3.0932710339 3.0932710339 3.0932710339 
3.0932710339 3.0932710339 3.0932710339 3.0932710339 3.0932710339 3.0932710339 3.0932710339 3.0932710339 3.0932710339 
3.0932710339 3.0932710339 3.0932710339 3.0932710339 3.0932710339 3.0932710339 3.0932710339 3.0932710339 3.0932710339 
3.0932710339 3.0932710339 3.0932710339 3.0932710339 3.0932710339 3.0932710339 3.0932710339 3.0932710339 3.0932710339 
3.0932710339 3.0932710339 3.0932710339 3.0932710339 3.0932710339 3.0932710339 3.0932710339 3.0932710339 3.0932710339 
3.0932710339 3.0932710339 3.0932710339 3.0932710339 3.0932710339 3.0932710339 3.0932710339 3.0932710339 3.0932710339 
3.0932710339 3.0932710339 3.0932710339 3.0932710339 3.0932710339 3.0932710339 3.0932710339 3.0932710339 3.0932710339 
3.0932710339 3.0932710339 3.0932710339 3.0932710339 3.0932710339 3.0932710339 3.0932710339 3.0932710339 3.0932710339 
3.0932710339 3.0932710339 3.0932710339 3.0932710339 3.0932710339 3.0932710339 3.0932710339 3.0932710339 3.0932710339 
3.0932710339 3.0932710339 3.0932710339 3.0932710339 3.0932710339 3.0932710339 3.0932710339 3.0932710339 3.0932710339 
3.0932710339 3.0932710339 3.0932710339 3.0932710339 3.0932710339 3.0932710339 3.0932710339 3.0932710339 3.0932710339 
3.0932710339 3.0932710339 3.0932710339 3.0932710339 3.0932710339 3.0932710339 3.0932710339 3.0932710339 3.0932710339 
3.0932710339 3.0932710339 3.0932710339 3.0932710339 3.0932710339 3.0932710339 3.0932710339 3.0932710339 3.0932710339 
3.0932710339 3.0932710339 3.0932710339 3.0932710339 3.0932710339 3.0932710339 3.0932710339 3.0932710339 3.0932710339 
3.0932710339 3.0932710339 3.0932710339 3.0932710339 3.0932710339 3.0932710339 3.0932710339 3.0932710339 3.0932710339 
3.0932710339 3.0932710339 3.0932710339 3.0932710339 3.0932710339 3.0932710339 3.0932710339 3.0932710339 3.0932710339 
3.0932710339 3.0932710339 3.0932710339 3.0932710339 3.0932710339 3.0932710339 3.0932710339 3.0932710339 3.0932710339 
3.0932710339 3.0932710339 3.0932710339 3.0932710339 3.0932710339 3.0932710339 3.0932710339 3.0932710339 3.0932710339 
3.0932710339 3.0932710339 3.0932710339 3.0932710339 3.0932710339 3.0932710339 3.0932710339 3.0932710339 3.0932710339 
3.0932710339 3.0932710339 3.0932710339 3.0932710339 3.0932710339 3.0932710339 3.0932710339 3.0932710339 3.0932710339 
3.0932710339 3.0932710339 3.0932710339 3.0932710339 3.0932710339 3.0932710339 3.0932710339 3.0932710339 3.0932710339 
3.0932710339 3.0932710339 3.0932710339 3.0932710339 3.0932710339 3.0932710339 3.0932710339 3.0932710339 3.0932710339 
3.0932710339 3.0932710339 3.0932710339 3.0932710339 3.0932710339 3.0932710339 3.0932710339 3.0932710339 3.0932710339 
3.0932710339 3.0932710339 3.0932710339 3.0932710339 3.0932710339 3.0932710339 3.0932710339 3.0786768432 3.0786768432 
3.0786768432 3.0786768432 3.0932710339 3.1078652246 3.1078652246 3.1078652246 3.1078652246 3.1078652246 3.1078652246 
3.1078652246 3.1078652246 3.1078652246 3.1078652246 3.0932710339 3.0786768432 3.0786768432 3.0786768432 3.0786768432 
3.0932710339 3.1078652246 3.1078652246 3.1078652246 3.1078652246 3.1078652246 3.0932710339 3.0786768432 3.0786768432 
3.0786768432 3.0786768432 3.0932710339 3.1078652246 3.1078652246 3.0932710339 3.0786768432 3.0786768432 3.0786768432 
3.0786768432 3.0786768432 3.0932710339 3.1078652246 3.1078652246 3.1078652246 3.0932710339 3.0932710339 3.0786768432 
3.0786768432 3.0786768432 3.0786768432 3.0932710339 3.1078652246 3.1078652246 3.1078652246 3.0932710339 3.0786768432 
3.0786768432 3.0786768432 3.0786768432 3.0932710339 3.1078652246 3.1078652246 3.1078652246 3.0932710339 3.0786768432 
3.0786768432 3.0786768432 3.0786768432 3.0786768432 3.0786768432 3.0786768432 3.0932710339 3.1078652246 3.1078652246 
3.1078652246 3.0932710339 3.0786768432 3.0786768432 3.0932710339 3.1078652246 3.1078652246 3.1078652246 3.0932710339 
3.0786768432 3.0786768432 3.0786768432 3.0932710339 3.1078652246 3.1078652246 3.1078652246 3.0932710339 3.0786768432 
3.0786768432 3.0786768432 3.0932710339 3.0932710339 3.1078652246 3.1078652246 3.0932710339 3.0786768432 3.0786768432 
3.0932710339 3.1078652246 3.1078652246 3.1078652246 3.1078652246 3.0932710339 3.0786768432 3.0786768432 3.0786768432 
3.0932710339 3.1078652246 3.1078652246 3.1078652246 3.0932710339 3.0786768432 3.0786768432 3.0786768432 3.0932710339 
3.1078652246 3.1078652246 3.0932710339 3.0786768432 3.0786768432 3.0932710339 3.1078652246 3.1078652246 3.1078652246 
3.0932710339 3.0786768432 3.0786768432 3.0786768432 3.0932710339 3.1078652246 3.1078652246 3.1078652246 3.0932710339 
3.0932710339 3.0786768432 3.0786768432 3.0786768432 3.0932710339 3.1078652246 3.1078652246 3.1078652246 3.0932710339 
3.0786768432 3.0786768432 3.0932710339 3.0932710339 3.1078652246 3.1078652246 3.0932710339 3.0786768432 3.0786768432 
3.0786768432 3.0932710339 3.1078652246 3.1078652246 3.1078652246 3.0932710339 3.0786768432 3.0786768432 3.0786768432 
3.0932710339 3.1078652246 3.1078652246 3.0932710339 3.0786768432 3.0786768432 3.0932710339 3.1078652246 3.1078652246 
3.1078652246 3.0932710339 3.0786768432 3.0786768432 3.0932710339 3.1078652246 3.1078652246 3.1078652246 3.0932710339 
3.0786768432 3.0786768432 3.0786768432 3.0786768432 3.0932710339 3.1078652246 3.1078652246 3.0932710339 3.0786768432 
3.0786768432 3.0932710339 3.1078652246 3.1078652246 3.0932710339 3.0786768432 3.0786768432 3.0932710339 3.1078652246 
3.1078652246 3.1078652246 3.1078652246 3.0932710339 3.0786768432 3.0786768432 3.0786768432 3.0932710339 3.1078652246 
3.1078652246 3.0932710339 3.0786768432 3.0786768432 3.0786768432 3.0932710339 3.0932710339 3.1078652246 3.1078652246 
3.0932710339 3.0786768432 3.0786768432 3.0932710339 3.1078652246 3.1078652246 3.0932710339 3.0786768432 3.0786768432 
3.0786768432 3.0932710339 3.1078652246 3.1078652246 3.0932710339 3.0786768432 3.0786768432 3.0932710339 3.1078652246 
3.1078652246 3.1078652246 3.0932710339 3.0786768432 3.0786768432 3.0932710339 3.1078652246 3.1078652246 3.1078652246 
3.0932710339 3.0786768432 3.0786768432 3.0786768432 3.0932710339 3.1078652246 3.1078652246 3.0932710339 3.0786768432 
3.0786768432 3.0932710339 3.1078652246 3.1078652246 3.1078652246 3.0932710339 3.0786768432 3.0786768432 3.0932710339 
3.1078652246 3.1078652246 3.0932710339 3.0786768432 3.0786768432 3.0932710339 3.1078652246 3.1078652246 3.1078652246 
3.0932710339 3.0786768432 3.0786768432 3.0932710339 3.1078652246 3.1078652246 3.0932710339 3.0786768432 3.0786768432 
3.0932710339 3.1078652246 3.1078652246 3.1078652246 3.0932710339 3.0786768432 3.0786768432 3.0786768432 3.0932710339 
3.0932710339 3.1078652246 3.1078652246 3.0932710339 3.0932710339 3.0786768432 3.0786768432 3.0932710339 3.1078652246 
3.1078652246 3.1078652246 3.0932710339 3.0786768432 3.0786768432 3.0932710339 3.1078652246 3.1224594153 3.1224594153 
3.1224594153 3.1224594153 3.1224594153 3.1078652246 3.0932710339 3.0786768432 3.0786768432 3.0932710339 3.1078652246 
3.1224594153 3.1224594153 3.1224594153 3.1224594153 3.1224594153 3.1224594153 3.1078652246 3.0932710339 3.0786768432 
3.0786768432 3.0786768432 3.0932710339 3.1078652246 3.1224594153 3.1224594153 3.1224594153 3.1224594153 3.1224594153 
3.1078652246 3.0932710339 3.0786768432 3.0786768432 3.0932710339 3.1078652246 3.1078652246 3.1224594153 3.1224594153 
3.1224594153 3.1078652246 3.1078652246 3.0932710339 3.0786768432 3.0786768432 3.0932710339 3.1078652246 3.1224594153 
3.1224594153 3.1224594153 3.1078652246 3.0932710339 3.0786768432 3.0786768432 3.0932710339 3.0932710339 3.1078652246 
3.1224594153 3.1224594153 3.1224594153 3.1224594153 3.1078652246 3.0932710339 3.0786768432 3.0786768432 3.0932710339 
3.1078652246 3.1078652246 3.1224594153 3.1224594153 3.1078652246 3.0932710339 3.0786768432 3.0786768432 3.0786768432 
3.0786768432 3.0786768432 3.0786768432 3.0932710339 3.1078652246 3.1224594153 3.1224594153 3.1224594153 3.1078652246 
3.0932710339 3.0786768432 3.0786768432 3.0786768432 3.0786768432 3.0786768432 3.0932710339 3.1078652246 3.1224594153 
3.1224594153 3.1224594153 3.1078652246 3.0932710339 3.0786768432 3.0786768432 3.0786768432 3.0786768432 3.0786768432 
3.0640826525 3.0640826525 3.0640826525 3.0640826525 3.0786768432 3.0932710339 3.1078652246 3.1224594153 3.1224594153 
3.1224594153 3.1224594153 3.1078652246 3.0932710339 3.0786768432 3.0786768432 3.0786768432 3.0786768432 3.0786768432 
3.0786768432 3.0640826525 3.0640826525 3.0640826525 3.0640826525 3.0640826525 3.0640826525 3.0786768432 3.0932710339 
3.1078652246 3.1224594153 3.1224594153 3.1078652246 3.0932710339 3.0786768432 3.0786768432 3.0786768432 3.0786768432 
3.0786768432 3.0786768432 3.0640826525 3.0640826525 3.0640826525 3.0640826525 3.0786768432 3.0786768432 3.0932710339 
3.1078652246 3.1078652246 3.1224594153 3.1224594153 3.1224594153 3.1078652246 3.1078652246 3.0932710339 3.0786768432 
3.0786768432 3.0786768432 3.0786768432 3.0640826525 3.0640826525 3.0786768432 3.0932710339 3.1078652246 3.1224594153 
3.1224594153 3.1224594153 3.1078652246 3.0932710339 3.0786768432 3.0786768432 3.0786768432 3.0786768432 3.0640826525 
3.0640826525 3.0640826525 3.0640826525 3.0786768432 3.0932710339 3.1078652246 3.1224594153 3.1224594153 3.1224594153 
3.1078652246 3.0932710339 3.0786768432 3.0786768432 3.0786768432 3.0786768432 3.0640826525 3.0640826525 3.0786768432 
3.0932710339 3.1078652246 3.1224594153 3.1224594153 3.1078652246 3.0932710339 3.0786768432 3.0786768432 3.0786768432 
3.0786768432 3.0640826525 3.0640826525 3.0640826525 3.0640826525 3.0786768432 3.0932710339 3.1078652246 3.1224594153 
3.1224594153 3.1224594153 3.1078652246 3.0932710339 3.0786768432 3.0786768432 3.0786768432 3.0786768432 3.0786768432 
3.0786768432 3.0640826525 3.0640826525 3.0786768432 3.0932710339 3.0932710339 3.1078652246 3.1078652246 3.1224594153 
3.1224594153 3.1224594153 3.1078652246 3.0932710339 3.0786768432 3.0786768432 3.0786768432 3.0786768432 3.0640826525 
3.0640826525 3.0640826525 3.0640826525 3.0786768432 3.0932710339 3.1078652246 3.1224594153 3.1224594153 3.1078652246 
3.0932710339 3.0786768432 3.0786768432 3.0786768432 3.0640826525 3.0640826525 3.0786768432 3.0932710339 3.1078652246 
3.1224594153 3.1224594153 3.1224594153 3.1078652246 3.0932710339 3.0786768432 3.0786768432 3.0786768432 3.0640826525 
3.0640826525 3.0786768432 3.0932710339 3.1078652246 3.1224594153 3.1224594153 3.1078652246 3.1078652246 3.0932710339 
3.0786768432 3.0786768432 3.0786768432 3.0786768432 3.0640826525 3.0640826525 3.0640826525 3.0640826525 3.0786768432 
3.0932710339 3.1078652246 3.1078652246 3.1224594153 3.1224594153 3.1224594153 3.1078652246 3.0932710339 3.0786768432 
3.0786768432 3.0786768432 3.0640826525 3.0640826525 3.0786768432 3.0932710339 3.1078652246 3.1224594153 3.1224594153 
3.137053606 3.137053606 3.137053606 3.1224594153 3.1078652246 3.0932710339 3.0786768432 3.0786768432 3.0786768432 
3.0640826525 3.0640826525 3.0786768432 3.0932710339 3.1078652246 3.1224594153 3.137053606 3.137053606 3.137053606 
3.137053606 3.1224594153 3.1078652246 3.0932710339 3.0786768432 3.0786768432 3.0786768432 3.0786768432 3.0786768432 
3.0640826525 3.0640826525 3.0786768432 3.0932710339 3.1078652246 3.1078652246 3.1224594153 3.1224594153 3.137053606 
3.137053606 3.137053606 3.137053606 3.137053606 3.1224594153 3.1078652246 3.0932710339 3.0786768432 3.0786768432 
3.0786768432 3.0640826525 3.0640826525 3.0786768432 3.0932710339 3.1078652246 3.1224594153 3.137053606 3.137053606 
3.137053606 3.1224594153 3.1078652246 3.0932710339 3.0786768432 3.0786768432 3.0786768432 3.0640826525 3.0640826525 
3.0640826525 3.0786768432 3.0932710339 3.0932710339 3.1078652246 3.1224594153 3.1224594153 3.137053606 3.137053606 
3.1224594153 3.1224594153 3.1078652246 3.0932710339 3.0786768432 3.0786768432 3.0786768432 3.0786768432 3.0640826525 
3.0640826525 3.0640826525 3.0786768432 3.0932710339 3.1078652246 3.1224594153 3.137053606 3.137053606 3.137053606 
3.137053606 3.1224594153 3.1078652246 3.0932710339 3.0786768432 3.0786768432 3.0786768432 3.0640826525 3.0494884618 
3.0494884618 3.0494884618 3.0494884618 3.0640826525 3.0786768432 3.0932710339 3.1078652246 3.1224594153 3.137053606 
3.137053606 3.137053606 3.1224594153 3.1078652246 3.0932710339 3.0932710339 3.0786768432 3.0786768432 3.0786768432 
3.0640826525 3.0494884618 3.0494884618 3.0494884618 3.0494884618 3.0494884618 3.0640826525 3.0786768432 3.0932710339 
3.1078652246 3.1078652246 3.1224594153 3.1224594153 3.137053606 3.137053606 3.137053606 3.1224594153 3.1078652246 
3.0932710339 3.0786768432 3.0786768432 3.0786768432 3.0786768432 3.0640826525 3.0494884618 3.0494884618 3.0640826525 
3.0786768432 3.0932710339 3.1078652246 3.1224594153 3.137053606 3.137053606 3.137053606 3.1224594153 3.1078652246 
3.0932710339 3.0786768432 3.0786768432 3.0786768432 3.0640826525 3.0640826525 3.0494884618 3.0494884618 3.0494884618 
3.0494884618 3.0640826525 3.0786768432 3.0932710339 3.0932710339 3.1078652246 3.1224594153 3.137053606 3.137053606 
3.137053606 3.1224594153 3.1078652246 3.0932710339 3.0786768432 3.0786768432 3.0786768432 3.0786768432 3.0786768432 
3.0640826525 3.0494884618 3.0494884618 3.0494884618 3.0640826525 3.0786768432 3.0932710339 3.1078652246 3.1078652246 
3.1224594153 3.1224594153 3.137053606 3.137053606 3.137053606 3.1224594153 3.1078652246 3.0932710339 3.0786768432 
3.0786768432 3.0786768432 3.0786768432 3.0640826525 3.0494884618 3.0494884618 3.0640826525 3.0786768432 3.0786768432 
3.0932710339 3.1078652246 3.1224594153 3.137053606 3.137053606 3.137053606 3.1224594153 3.1078652246 3.0932710339 
3.0786768432 3.0786768432 3.0786768432 3.0640826525 3.0494884618 3.0494884618 3.0494884618 3.0640826525 3.0786768432 
3.0932710339 3.1078652246 3.1224594153 3.137053606 3.137053606 3.1224594153 3.1078652246 3.0932710339 3.0786768432 
3.0786768432 3.0786768432 3.0786768432 3.0640826525 3.0494884618 3.0494884618 3.0494884618 3.0640826525 3.0786768432 
3.0932710339 3.1078652246 3.1078652246 3.1224594153 3.137053606 3.137053606 3.1224594153 3.1078652246 3.0932710339 
3.0786768432 3.0786768432 3.0786768432 3.0640826525 3.0494884618 3.0494884618 3.0640826525 3.0786768432 3.0932710339 
3.0932710339 3.1078652246 3.1224594153 3.1224594153 3.137053606 3.137053606 3.137053606 3.1224594153 3.1078652246 
3.0932710339 3.0786768432 3.0786768432 3.0786768432 3.0786768432 3.0786768432 3.0640826525 3.0494884618 3.0494884618 
3.0494884618 3.0640826525 3.0786768432 3.0932710339 3.1078652246 3.1224594153 3.137053606 3.137053606 3.1224594153 
3.1078652246 3.0932710339 3.0786768432 3.0786768432 3.0786768432 3.0786768432 3.0640826525 3.0494884618 3.0348942711 
3.0348942711 3.0348942711 3.0348942711 3.0494884618 3.0640826525 3.0786768432 3.0932710339 3.1078652246 3.1224594153 
3.137053606 3.137053606 3.1224594153 3.1078652246 3.0932710339 3.0786768432 3.0786768432 3.0786768432 3.0786768432 
3.0640826525 3.0640826525 3.0494884618 3.0348942711 3.0348942711 3.0348942711 3.0348942711 3.0494884618 3.0640826525 
3.0786768432 3.0932710339 3.1078652246 3.1224594153 3.137053606 3.137053606 3.1224594153 3.1078652246 3.0932710339 
3.0932710339 3.0786768432 3.0640826525 3.0640826525 3.0640826525 3.0640826525 3.0640826525 3.0640826525 3.0786768432 
3.0786768432 3.0786768432 3.0640826525 3.0494884618 3.0348942711 3.0348942711 3.0494884618 3.0494884618 3.0640826525 
3.0786768432 3.0932710339 3.1078652246 3.1078652246 3.1224594153 3.1224594153 3.137053606 3.137053606 3.137053606 
3.1224594153 3.1078652246 3.0932710339 3.0786768432 3.0640826525 3.0640826525 3.0640826525 3.0786768432 3.0786768432 
3.0786768432 3.0786768432 3.0640826525 3.0494884618 3.0348942711 3.0348942711 3.0348942711 3.0348942711 3.0494884618 
3.0640826525 3.0786768432 3.0932710339 3.1078652246 3.1224594153 3.1224594153 3.137053606 3.137053606 3.137053606 
3.1224594153 3.1078652246 3.0932710339 3.0786768432 3.0786768432 3.0640826525 3.0640826525 3.0640826525 3.0786768432 
3.0786768432 3.0786768432 3.0786768432 3.0786768432 3.0786768432 3.0640826525 3.0494884618 3.0348942711 3.0348942711 
3.0494884618 3.0640826525 3.0786768432 3.0786768432 3.0932710339 3.1078652246 3.1224594153 3.137053606 3.137053606 
3.1224594153 3.1078652246 3.0932710339 3.0786768432 3.0640826525 3.0640826525 3.0640826525 3.0640826525 3.0786768432 
3.0786768432 3.0786768432 3.0640826525 3.0494884618 3.0348942711 3.0348942711 3.0348942711 3.0494884618 3.0640826525 
3.0786768432 3.0932710339 3.1078652246 3.1224594153 3.137053606 3.137053606 2.9473291268 2.9473291268 2.9619233175 
2.9619233175 2.9765175082 2.9765175082 2.991111699 2.991111699 3.0057058897 3.0057058897 3.0203000804 3.0203000804 
3.0348942711 3.0348942711 3.0494884618 3.0494884618 3.0640826525 3.0640826525 3.0786768432 3.0786768432 3.0932710339 
3.0932710339 3.1078652246 3.1078652246 3.1224594153 3.1224594153 3.137053606 3.137053606 2.9473291268 2.9619233175 
2.9765175082 2.991111699 3.0057058897 3.0203000804 3.0348942711 3.0494884618 3.0640826525 3.0786768432 3.0932710339 
3.1078652246 3.1224594153 3.137053606 2.9473291268 2.9619233175 2.9765175082 2.991111699 3.0057058897 3.0203000804 
3.0348942711 3.0494884618 3.0640826525 3.0786768432 3.0932710339 3.1078652246 3.1224594153 3.137053606 2.9473291268 
2.9619233175 2.9765175082 2.991111699 3.0057058897 3.0203000804 3.0348942711 3.0494884618 3.0640826525 3.0786768432 
3.0932710339 3.1078652246 3.1224594153 3.137053606 2.9473291268 2.9619233175 2.9765175082 2.991111699 3.0057058897 
3.0203000804 3.0348942711 3.0494884618 3.0640826525 3.0786768432 3.0932710339 3.1078652246 3.1224594153 3.137053606 
2.9473291268 2.9619233175 2.9765175082 2.991111699 3.0057058897 3.0203000804 3.0348942711 3.0494884618 3.0640826525 
3.0786768432 3.0932710339 3.1078652246 3.1224594153 3.137053606 2.9473291268 2.9619233175 2.9765175082 2.991111699 
3.0057058897 3.0203000804 3.0348942711 3.0494884618 3.0640826525 3.0786768432 3.0932710339 3.1078652246 3.1224594153 
3.137053606 2.9473291268 2.9619233175 2.9765175082 2.991111699 3.0057058897 3.0203000804 3.0348942711 3.0494884618 
3.0640826525 3.0786768432 3.0932710339 3.1078652246 3.1224594153 3.137053606 2.9473291268 2.9619233175 2.9765175082 
2.991111699 3.0057058897 3.0203000804 3.0348942711 3.0494884618 3.0640826525 3.0786768432 3.0932710339 3.1078652246 
3.1224594153 3.137053606 2.9473291268 2.9619233175 2.9765175082 2.991111699 3.0057058897 3.0203000804 3.0348942711 
3.0494884618 3.0640826525 3.0786768432 3.0932710339 3.1078652246 3.1224594153 3.137053606 3.137053606 3.1224594153 
3.1078652246 3.0932710339 3.0786768432 3.0640826525 3.0640826525 3.0786768432 3.0786768432 3.0786768432 3.0640826525 
3.0494884618 3.0494884618 3.0348942711 3.0203000804 3.0203000804 3.0203000804 3.0203000804 3.0203000804 3.0348942711 
3.0348942711 3.0494884618 3.0640826525 3.0786768432 3.0932710339 3.1078652246 2.9473291268 2.9473291268 2.9619233175 
2.9619233175 2.9765175082 2.9765175082 2.991111699 2.991111699 3.0057058897 3.0057058897 3.0203000804 3.0203000804 
3.0348942711 3.0348942711 3.0494884618 3.0494884618 3.0640826525 3.0640826525 3.0786768432 3.0786768432 3.0932710339 