# vtk DataFile Version 4.2
vtk output
ASCII
DATASET UNSTRUCTURED_GRID
POINTS 1740 double
2144.07 -94.44003 0 2911 0 0 16.54298 -37.82236 0 
5.09149 -21.30132 0 1.27433 -10.75385 0 0 0 0 
2.54575 15.14293 0 6.36291 23.76126 0 14.00014 34.89063 0 
30.50239 50.70793 0 33.39435 -52.93479 0 2050.91 -103.7862 0 
60.1465 -69.72165 0 88.83633 -83.2817 0 118.7656 -94.71113 0 
153.4168 -105.7022 0 199.5806 -117.771 0 261.4466 -130.7139 0 
345.846 -144.1892 0 460.3522 -157.0592 0 608.4185 -167.1903 0 
783.2313 -172.4016 0 941.0559 -172.4533 0 1063.409 -170.1096 0 
1164.153 -166.8746 0 1263.449 -162.682 0 1375.468 -156.8941 0 
1513.293 -148.414 0 1665.281 -137.5317 0 1791.864 -127.3721 0 
2195.451 -89.09491 0 2273.924 -80.67077 0 2383.731 -68.3513 0 
2517.64 -52.47337 0 2649.227 -35.9232 0 2740.773 -23.82991 0 
2804.387 -15.13419 0 2848.802 -8.916218 0 2881.944 -4.196067 0 
56.61447 67.79801 0 84.09687 81.25172 0 112.4783 92.48395 0 
142.1748 102.3504 0 174.8563 111.6168 0 213.124 120.8806 0 
260.3759 130.5151 0 324.6539 141.1779 0 418.1422 152.9178 0 
535.6656 162.9871 0 690.9154 170.4255 0 902.6513 172.7852 0 
1100.32 169.0517 0 1270.99 162.3262 0 1462.794 151.6837 0 
1631.287 140.0952 0 1747.993 131 0 1922.788 115.9027 0 
2069.56 101.951 0 2128.804 96.0021 0 2297.147 78.11721 0 
2414.379 64.80104 0 2554.023 47.99319 0 2673.693 32.73885 0 
2757.97 21.50315 0 2814.297 13.7575 0 2852.02 8.460961 0 
2882.272 4.148909 0 1791.052 127.4402 0 1366.894 157.3738 0 
1444.38 -152.8302 0 1547.039 146.1296 0 1589.287 -143.1614 0 
1878.731 119.8675 0 1997.072 108.9828 0 1185.654 166.0472 0 
1882.536 -119.5292 0 1971.323 -111.4145 0 1684.777 136.0292 0 
2099.317 -98.9855 0 2234.809 84.9091 0 2181.695 90.53914 0 
1728.573 -132.5703 0 1718.815 133.3509 0 1834.825 123.7132 0 
1960.305 112.4444 0 2033.69 105.4648 0 2099.184 98.99892 0 
2214.291 -64.085388712 396.8421 2955.512 22.603768168 396.8421 158.0786 -15.381609752 396.8421 
147.0109 0.47701696153 396.8421 143.3217 10.633256723 396.8421 142.09 21.012160937 396.8421 
144.5505 35.666910763 396.8421 148.2398 44.0290224 396.8421 155.621 54.852058602 396.8421 
171.5701 70.284222014 396.8421 174.3652 -29.831326141 396.8421 2124.254 -72.809093217 396.8421 
200.2206 -45.812808068 396.8421 227.9488 -58.663712654 396.8421 256.8748 -69.450182782 396.8421 
290.3647 -79.779038389 396.8421 334.981 -91.063246324 396.8421 394.7733 -103.08318282 396.8421 
476.3434 -115.47631404 396.8421 587.0114 -127.1273319 396.8421 730.1145 -136.01592991 396.8421 
899.0676 -140.15413755 396.8421 1051.602 -139.54921601 396.8421 1169.853 -136.87877187 396.8421 
1267.221 -133.48573044 396.8421 1363.188 -129.23066822 396.8421 1471.452 -123.47876112 396.8421 
1604.657 -115.19246019 396.8421 1751.55 -104.70832449 396.8421 1873.891 -95.024050641 396.8421 
2263.949 -59.112779908 396.8421 2339.792 -51.297649347 396.8421 2445.918 -39.91197191 396.8421 
2575.338 -25.302424827 396.8421 2702.515 -10.13892089 396.8421 2790.992 0.90658660097 396.8421 
2852.473 8.833591039 396.8421 2895.4 14.494881229 396.8421 2927.431 18.78890175 396.8421 
196.807 87.029865807 396.8421 223.3682 100.26989314 396.8421 250.7983 111.36682921 396.8421 
279.4994 121.15039779 396.8421 311.0855 130.37354715 396.8421 348.0705 139.63242392 396.8421 
393.7383 149.31024978 396.8421 455.8617 160.09381719 396.8421 546.2162 172.09395467 396.8421 
659.8003 182.57687989 396.8421 809.846 190.63681339 396.8421 1014.485 193.8796278 396.8421 
1205.528 190.93259019 396.8421 1370.477 184.8178319 396.8421 1555.851 174.75791498 396.8421 
1718.696 163.57365727 396.8421 1831.49 154.69376138 396.8421 2000.426 139.81319456 396.8421 
2142.278 125.94163755 396.8421 2199.537 119.99823938 396.8421 2362.236 102.04337617 396.8421 
2475.539 88.603389942 396.8421 2610.501 71.567820212 396.8421 2726.16 56.049563649 396.8421 
2807.613 44.590447924 396.8421 2862.05 36.678407654 396.8421 2898.509 31.262849776 396.8421 
2927.749 26.850986154 396.8421 1873.106 151.19933953 396.8421 1463.165 180.17187287 396.8421 
1538.054 -119.49156383 396.8421 1637.272 169.41927504 396.8421 1678.104 -110.11513586 396.8421 
1957.846 143.7356292 396.8421 2072.22 132.94573433 396.8421 1288 188.24304659 396.8421 
1961.524 -87.600626398 396.8421 2047.334 -79.959790573 396.8421 1770.393 159.61321888 396.8421 
2171.038 -68.323372505 396.8421 2301.989 108.87597772 396.8421 2250.655 114.52696979 396.8421 
1812.721 -99.968403109 396.8421 1803.29 156.99595763 396.8421 1915.411 147.53075664 396.8421 
2036.686 136.38428704 396.8421 2107.61 129.44460976 396.8421 2170.909 122.99428749 396.8421 
2284.511 -38.851327762 793.6842 3000.027 42.37262011 793.6842 299.6143 1.7499807251 793.6842 
288.9304 16.964635798 793.6842 285.3691 26.733187716 793.6842 284.1801 36.734491496 793.6842 
286.5551 50.886865613 793.6842 290.1167 58.979025897 793.6842 297.2417 69.471530923 793.6842 
312.6379 84.47124582 793.6842 315.336 -12.068380488 793.6842 2197.597 -47.155267426 793.6842 
340.2947 -27.296652582 793.6842 367.0612 -39.494726206 793.6842 394.9839 -49.696201205 793.6842 
427.3123 -59.428318332 793.6842 470.3812 -70.012044916 793.6842 528.0998 -81.215284874 793.6842 
606.8411 -92.65859232 793.6842 713.6708 -103.24613479 793.6842 851.8104 -111.05111771 793.6842 
1014.904 -114.24260602 793.6842 1162.147 -113.03860152 793.6842 1276.298 -110.04912914 793.6842 
1370.288 -106.48047283 793.6842 1462.927 -102.12451998 793.6842 1567.436 -96.340740046 793.6842 
1696.021 -88.128616342 793.6842 1837.82 -77.865614425 793.6842 1955.917 -68.47348907 793.6842 
2332.447 -34.132294109 793.6842 2405.659 -26.734768283 793.6842 2508.105 -15.99554944 793.6842 
2633.037 -2.2735299106 793.6842 2755.801 11.909714432 793.6842 2841.209 22.20861502 793.6842 
2900.561 29.584937446 793.6842 2941.997 34.846107653 793.6842 2972.917 38.833044118 793.6842 
336.9995 100.8030627 793.6842 362.6396 113.76065008 793.6842 389.1182 124.65457489 793.6842 
416.8239 134.2876302 793.6842 447.3145 143.39640108 793.6842 483.0167 152.57120119 793.6842 
527.1009 162.20044109 793.6842 587.0697 172.98985117 793.6842 674.2905 185.10319315 793.6842 
783.9349 195.84745971 793.6842 928.7766 204.38114764 793.6842 1126.317 208.40074677 793.6842 
1310.735 206.23634502 793.6842 1469.963 200.80050118 793.6842 1648.908 191.47618422 793.6842 
1806.105 180.89583803 793.6842 1914.987 172.4039211 793.6842 2078.064 158.05047968 793.6842 
2214.996 144.56640916 793.6842 2270.269 138.76431896 793.6842 2427.326 121.16167988 793.6842 
2536.699 107.92297558 793.6842 2666.98 91.079489074 793.6842 2778.628 75.68458064 793.6842 
2857.255 64.289676482 793.6842 2909.806 56.410226431 793.6842 2945.001 51.011944229 793.6842 
2973.224 46.611346821 793.6842 1955.16 169.04554489 793.6842 1559.437 196.52751646 793.6842 
1631.729 -92.375291111 793.6842 1727.505 186.4453716 793.6842 1766.921 -83.143942318 793.6842 
2036.96 161.84646297 793.6842 2147.368 151.38562916 793.6842 1390.347 203.88769245 793.6842 
2040.511 -61.318510859 793.6842 2123.346 -53.988071049 793.6842 1856.009 177.11657714 793.6842 
2242.759 -42.88123027 793.6842 2369.167 127.87245022 793.6842 2319.614 133.41160966 793.6842 
1896.869 -73.259713503 793.6842 1887.765 174.61170021 793.6842 1995.998 165.5112528 793.6842 
2113.066 154.72560827 793.6842 2181.531 147.97952699 793.6842 2242.634 141.69082028 793.6842 
2354.732 -18.384922753 1190.526 3044.539 59.092004958 1190.526 441.15 14.318651014 1190.526 
430.8497 28.906140896 1190.526 427.4164 38.290875288 1190.526 426.2701 47.913320057 1190.526 
428.5601 61.552840319 1190.526 431.9934 69.36434139 1190.526 438.8627 79.507190916 1190.526 
453.7057 94.036344156 1190.526 456.3069 1.1040121556 1190.526 2270.94 -26.414927604 1190.526 
480.3688 -13.416297587 1190.526 506.1737 -25.010164896 1190.526 533.0934 -34.676725487 1190.526 
564.26 -43.868832901 1190.526 605.7815 -53.825130337 1190.526 661.4265 -64.304538685 1190.526 
737.3385 -74.915290904 1190.526 840.33 -84.57972966 1190.526 973.5064 -91.450550949 1190.526 
1130.74 -93.824811409 1190.526 1272.693 -92.094371208 1190.526 1382.742 -88.81361678 1190.526 
1473.356 -85.073524444 1190.526 1562.666 -80.604203272 1190.526 1663.42 -74.754654146 1190.526 
1787.385 -66.546940101 1190.526 1924.09 -56.391885858 1190.526 2037.944 -47.168997791 1190.526 
2400.946 -13.833084442 1190.526 2471.527 -6.7132594426 1190.526 2570.292 3.591653557 1190.526 
2690.735 16.71043044 1190.526 2809.091 30.219833566 1190.526 2891.43 40.00115477 1190.526 
2948.647 46.993568721 1190.526 2988.597 51.974609336 1190.526 3018.403 55.746057855 1190.526 
477.1918 109.89786545 1190.526 501.9109 122.51650053 1190.526 527.4382 133.15145786 1190.526 
554.1485 142.57762854 1190.526 583.5435 151.51236969 1190.526 617.963 160.53649511 1190.526 
660.4633 170.0391143 1190.526 718.2775 180.73561714 1190.526 802.3645 192.83338068 1190.526 
908.0698 203.70108953 1190.526 1047.707 212.56639106 1190.526 1238.151 217.24093708 1190.526 
1415.942 215.81846539 1190.526 1569.449 211.08183578 1190.526 1741.965 202.57636002 1190.526 
1893.514 192.7246043 1190.526 1998.484 184.73490069 1190.526 2155.702 171.12172636 1190.526 
2287.714 158.24248624 1190.526 2341.001 152.67926818 1190.526 2492.415 135.73655287 1190.526 
2597.858 122.93979449 1190.526 2723.46 106.6028041 1190.526 2831.095 91.624526445 1190.526 
2906.899 80.513387589 1190.526 2957.56 72.819308542 1190.526 2991.49 67.543247885 1190.526 
3018.699 63.239576344 1190.526 2037.214 181.56051936 1190.526 1655.708 207.21560024 1190.526 
1725.403 -70.779928561 1190.526 1817.738 197.90972995 1190.526 1855.738 -61.603045662 1190.526 
2116.075 174.7329174 1190.526 2222.516 164.76515936 1190.526 1492.694 213.8145386 1190.526 
2119.498 -40.178385539 1190.526 2199.357 -33.043477872 1190.526 1941.625 189.17596657 1190.526 
2314.479 -22.278527875 1190.526 2436.346 142.20633841 1190.526 2388.573 147.53701159 1190.526 
1981.017 -51.861654279 1190.526 1972.24 186.81748129 1190.526 2076.584 178.21218896 1190.526 
[...]
POINT_DATA 1740
FIELD FieldData 1
Pressure 1 1740 double
3.1043112541 3.0185026895 3.0093558806 2.9860112008 2.9741710601 2.951025282 2.9673404175 2.9856082092 3.0179228657 
3.0304316054 3.0132936321 3.1080347239 3.0377208222 3.0519410852 3.0685188301 3.0675591227 3.0841986072 3.0889185745 
3.1102176629 3.1141099929 3.1325155152 3.141118 3.1427813366 3.1483095127 3.1427848825 3.1381737717 3.1346813012 
3.1305416368 3.1239282671 3.1187007411 3.1013514971 3.0983269185 3.0924926035 3.0848240247 3.0737357241 3.0641653953 
3.0534249834 3.0455284768 3.0343392504 3.066252916 3.0790218448 3.0915977272 3.1040064976 3.1074138893 3.1185040768 
3.1252344611 3.1337316283 3.1501500665 3.163660179 3.1796938647 3.1913295685 3.1987033712 3.2051076872 3.2108908313 
3.21522457 3.2179571547 3.2192900808 3.1542760885 3.0992115518 3.087790761 3.0823691416 3.0730775022 3.0631077414 
3.053356328 3.0427606804 3.0360911621 3.0341306195 3.2180135188 3.2084058888 3.1332198173 3.2122502789 3.1272422609 
3.2186245114 3.2208927851 3.2053987328 3.1147165414 3.1111652925 3.2158010221 3.1062047267 3.0914212473 3.0931003544 
3.1212934155 3.2171667676 3.2188583768 3.2204096633 3.2277715972 3.090849131 3.1006707439 3.0233670245 3.0257391299 
2.9982153779 3.0046311514 2.9838028198 2.9946911771 3.0078813421 3.0341863132 3.0520325154 3.0382379244 3.1047510364 
3.057673004 3.0705249612 3.0838227136 3.0870038844 3.1030802671 3.1113606335 3.1250642722 3.1301548405 3.1404581369 
3.1440819356 3.1475770651 3.1473147633 3.1420267497 3.1369594213 3.1312992042 3.1267971683 3.1209477536 3.1154593384 
3.0981970821 3.094417588 3.088548239 3.0810386703 3.0699698122 3.0604523025 3.0503233072 3.0433285184 3.0252807973 
3.0845220255 3.1043578745 3.1157422292 3.1250864334 3.1334438037 3.1391360111 3.1443403441 3.1538153953 3.1667259755 
3.1775854167 3.1863925615 3.1947689761 3.2015232526 3.2082429448 3.2116499494 3.2147466646 3.2175195539 3.2201376964 
3.0909810803 3.098014638 3.0918919329 3.0859416528 3.0769171205 3.0663497567 3.056514458 3.0456977438 3.0396327497 
3.0409652173 3.2182192598 3.2104961013 3.1300321503 3.2136413643 3.123600209 3.2194598943 3.2216923189 3.2068105961 
3.1114836606 3.1078444504 3.2158940798 3.1030459241 3.094962345 3.0961901121 3.1185191738 3.216727596 3.2187578762 
3.2197095321 3.1723179587 3.0968561919 3.0978882626 3.0231372899 3.0273498025 3.0008771581 3.0010831562 2.9824153552 
2.997190312 3.0099187453 3.037673115 3.0583736231 3.046261795 3.1021222386 3.0609424821 3.0801602242 3.0980851063 
3.1035437589 3.1172586363 3.1252961567 3.1373380561 3.1419682467 3.1505016697 3.1523163045 3.1507686293 3.1483200496 
3.1409084825 3.1348795033 3.1290406922 3.1238705977 3.1179781946 3.1129993949 3.0956174996 3.0918715021 3.0861390493 
3.0785882764 3.0675273234 3.0578350399 3.0484383688 3.0416149585 3.0274345199 3.0897353063 3.1116233645 3.129548817 
3.139145394 3.1533735017 3.1602514074 3.1694707053 3.1738617451 3.18300552 3.1934993304 3.1982773924 3.2045482923 
3.207697427 3.2151478053 3.2176953964 3.2188081917 3.2209076093 3.2241678352 3.0912605296 3.0930874071 3.0909912312 
3.085617094 3.0773174224 3.0666378098 3.0569575498 3.0466817744 3.0395824521 3.0414665037 3.2212149956 3.2159915211 
3.1271047308 3.2185556105 3.1205737152 3.2219982532 3.2168549652 3.212284228 3.1090807087 3.1052198344 3.2193875181 
3.1004454242 3.0931861492 3.0939044325 3.115414781 3.2198847345 3.2216609434 3.224924975 3.0856489596 3.0903885335 
3.0958549804 3.0229761149 3.0283562121 3.000875597 3.0013670101 2.9809979084 2.9917540146 3.0056165805 3.0379013726 
3.058787178 3.0473964277 3.0998001578 3.0678547029 3.0854893053 3.1050173674 3.1126194436 3.1257903507 3.1330909755 
3.1452186448 3.150971288 3.1575921898 3.1575006009 3.1536942748 3.1488586583 3.1401027593 3.134015427 3.1278422363 
3.1218624175 3.1158275642 3.1105411484 3.0934805747 3.0897633946 3.0845421499 3.0769095493 3.0664986058 3.0566237518 
3.0480981461 3.0409628505 3.0291199774 3.0926752143 3.1161805069 3.1317510766 3.144400287 3.150573439 3.1624284415 
3.1754108577 3.1823020117 3.1909792584 3.2034054505 3.2095572411 3.2137779525 3.2163837749 3.2232234223 3.2249286957 
3.225624362 3.2274018638 3.2372597622 3.0913402818 3.0914045588 3.0895055361 3.0841937839 3.075875507 3.0655756316 
3.055847997 3.046128916 3.0386122218 3.0405438843 3.2273798494 3.2241076863 3.1254533768 3.2259608637 3.1186629992 
3.2271328853 3.0847101085 3.2205480428 3.1068435809 3.1031602737 3.2262250708 3.0979628781 3.091576072 3.0914618442 
3.1129118226 3.2264276887 3.2277171626 3.1134000942 3.0889620265 3.091587685 3.0940902447 3.0221651324 3.0303985352 
3.0020146661 3.0037793332 2.9842670939 2.9938428447 3.0062823354 3.0394699478 3.059667404 3.0491618146 3.098082348 
3.0711402607 3.088870681 3.1066198718 3.1156053515 3.129141203 3.1385083096 3.1496626468 3.1562770636 3.1623524666 
3.1607950477 3.1549126046 3.1481545287 3.1386570082 3.1323386837 3.1262159907 3.1198749549 3.1139857254 3.1085438428 
3.0918765237 3.0880933415 3.083227228 3.0756401169 3.0657114464 3.0559767536 3.0478532231 3.0404090648 3.0304833454 
3.0934390444 3.11734409 3.1319629481 3.1449768394 3.154812785 3.1655272738 3.1768846782 3.1826592829 3.1937429271 
3.2074228824 3.2170828116 3.2204979636 3.2239315413 3.2303352929 3.2317171344 3.232135544 3.2338634154 3.1707657326 
3.0900228701 3.0898858271 3.0874416282 3.0819429829 3.0738274195 3.0636503238 3.0539487392 3.0445539965 3.0369165774 
3.0384973432 3.2337713162 3.2312152974 3.1235808141 3.2325866426 3.1169176803 3.2317639595 3.0889000162 3.228113941 
3.1050478855 3.1014886687 3.2328488516 3.0959543321 3.0894635459 3.0897256579 3.1108929724 3.2331005469 3.2337142271 
3.0891817897 3.0900267027 3.0901228437 3.0927111717 3.0211664319 3.0312407797 3.0023759176 3.0041812629 2.9852398774 
2.9949138048 3.0075772247 3.0400059728 3.0610544194 3.0513577561 3.0964883405 3.0734420671 3.0919523141 3.1085643508 
3.1180976651 3.1317453091 3.1421477454 3.1537048713 3.1610674373 3.166413566 3.1635463463 3.1555982278 3.1468755695 
3.1371342299 3.1307952799 3.124564645 3.1184603504 3.1124896634 3.1069840201 3.0903358935 3.0866198032 3.0819963374 
3.0744091465 3.0648972768 3.0550782148 3.0472207825 3.039626243 3.0312662885 3.0941715003 3.1184458988 3.1326690248 
3.1456453115 3.1548724062 3.1664601124 3.1789011695 3.1858741329 3.1971490559 3.2108073624 3.2222454828 3.2275176781 
3.230874355 3.2374815399 3.2385626657 3.2384864697 3.2398148222 3.0896929761 3.0883880013 3.0879371568 3.085081165 
3.0796833588 3.0720408397 3.0620763339 3.0522953115 3.0432601625 3.0355340757 3.0368515013 3.2397705233 3.2384538922 
3.1221476403 3.2392210067 3.115395384 3.2412113958 3.0884333289 3.2350359484 3.1036058239 3.1000518446 3.2390345743 
3.094243007 3.0872335359 3.0873775976 3.1092542304 3.2392614855 3.2396463882 3.0858666303 3.0883735725 3.0880630903 
3.0912723321 3.0207162132 3.0314479641 3.0027975983 3.003266692 2.9850183206 2.9946000376 3.0077983459 3.0398255853 
3.061497584 3.052776914 3.0950869043 3.0747491522 3.0940529238 3.1104620733 3.120476444 3.1342233634 3.1453527081 
3.1570368662 3.1650205803 3.1700808103 3.1661049804 3.1560243534 3.1456067094 3.1359118607 3.1296820145 3.123318577 
3.1174058563 3.1113622109 3.1057980749 3.0889889531 3.0854334864 3.08096918 3.0734664329 3.0641607715 3.0541718665 
3.0464891467 3.0388456304 3.0313441207 3.0944026941 3.1187440015 3.1329150977 3.14580443 3.1554783269 3.1669575164 
3.1791569249 3.1869136092 3.1985113967 3.2128996742 3.2249596277 3.2318051358 3.2367743743 3.2439953126 3.2450181999 
3.2447917328 3.2459010696 3.0803651911 3.0863403466 3.086196766 3.0836778794 3.0785596321 3.0714200241 3.0614458873 
3.0516875784 3.0430001659 3.0351653439 3.0365047843 3.2458806743 3.245156909 3.1211851556 3.2455926072 3.1143203485 
3.2579546511 3.0856041936 3.2410726793 3.102438675 3.0990071596 3.2452942707 3.0927437696 3.0854868028 3.0857167453 
3.1080214132 3.2453316217 3.2457670104 3.0841550726 3.0853559603 3.0863605229 3.090595796 3.0210068027 3.0316939875 
3.0030717901 3.0027105966 2.9852415643 2.9942953219 3.0077831513 3.0398248841 3.061365852 3.0534880073 3.0943949456 
3.0755801148 3.095282304 3.1116616357 3.1221149801 3.1360354787 3.1478339475 3.1594604939 3.1679025585 3.173303027 
3.168417188 3.1562181859 3.1446389944 3.1352556509 3.1289499854 3.1226337156 3.1166563981 3.1105277169 3.1050961755 
3.0885233789 3.0849377015 3.0804567693 3.0730119415 3.0637660502 3.0537170358 3.0460728676 3.0384652845 3.0312849249 
3.0943171392 3.1187561795 3.1328251336 3.1456573417 3.1553853474 3.1668780399 3.1790176804 3.1874551588 3.1993446893 
3.2138586248 3.2262012344 3.2348468951 3.2406059012 3.2485605575 3.2506296985 3.2505071016 3.2515678624 3.0810292857 
3.0866047908 3.0857272641 3.0838800866 3.0791644899 3.0723452157 3.0622935853 3.0525051659 3.0440459815 3.0359966405 
3.0374344285 3.2515216482 3.2502208187 3.120443284 3.2515471606 3.1137740376 3.2486611598 3.0829674693 3.2453158651 
3.1017535452 3.0983418951 3.2510181448 3.0921115449 3.0854395819 3.0858205621 3.1073869857 3.2511171497 3.2517389862 
3.0870348437 3.0847603224 3.0868384009 3.0906643212 3.0216649547 3.0319885066 3.0032494918 3.0027613466 2.9854493865 
2.9942166223 3.0079735808 3.0399894942 3.0614178828 3.0539241271 3.0946132301 3.07617007 3.0960640431 3.1124266557 
3.1232598522 3.1373490745 3.1497130005 3.161372271 3.1700184917 3.1764150679 3.1709300224 3.1569081494 3.144708651 
3.1355359292 3.1290786364 3.1229169282 3.1168570724 3.1109075417 3.1052059393 3.0886494525 3.0849861857 3.0804600392 
3.0730447905 3.063775494 3.0537235727 3.0460882146 3.0384805533 3.0312382345 3.0945343039 3.1188020017 3.1328451176 
3.1456527201 3.1554067833 3.1669563659 3.1788875172 3.1877436323 3.1999024036 3.2143698564 3.2268600708 3.2363097864 
3.2428826366 3.2516138048 3.2542991347 3.2551905618 3.256283393 3.0857526137 3.0872243871 3.0869176092 3.0852246033 
3.0805262833 3.073850938 3.063709064 3.0539954654 3.045638201 3.0374166683 3.0389936045 3.2565010741 3.253639037 
3.1206118672 3.2555437773 3.1137629505 3.2416293276 3.0853675862 3.247855076 3.1018482073 3.0984313343 3.2557972406 
3.0921611888 3.0869909859 3.0869772152 3.107590285 3.2558566059 3.2571338859 3.0904722473 3.0869649418 3.0878051944 
3.0911090473 3.0221354007 3.03223953 3.0034081702 3.0028115998 2.9857170927 2.9942188525 3.0082001723 3.0402175036 
3.0617948861 3.0541794634 3.0950589641 3.0765701305 3.0967049975 3.1129443955 3.1241053977 3.1382523446 3.151084014 
3.1627372598 3.1717666279 3.1794218822 3.1736798869 3.1583899986 3.1453820786 3.1367034942 3.1301765409 3.1239642483 
3.1176363 3.1116353602 3.1058617522 3.0890485907 3.0853496587 3.0807496537 3.0733230603 3.0640071742 3.0540031234 
3.0463520135 3.0387352038 3.031212264 3.0950595487 3.119050953 3.1332755873 3.1460558131 3.1557828807 3.1673567434 
3.1790671161 3.1881512073 3.2004778302 3.2148067126 3.2274119604 3.2371612888 3.2440194216 3.2533625316 3.2566837725 
3.2582089422 3.2595408726 3.0850280509 3.0867383448 3.0869767599 3.0855963728 3.080934016 3.074423829 3.0643744046 
3.0548597331 3.0465737639 3.0382489561 3.0401891816 3.2599344997 3.2557325735 3.1213979799 3.2581295454 3.1145154346 
3.2341812679 3.0854115193 3.2490653339 3.1023750861 3.098737831 3.2588316614 3.0926467743 3.0872553056 3.0869757811 
3.1084294469 3.2590562035 3.2608429529 3.0897994101 3.0866650061 3.0872121486 3.0918925536 3.0221211434 3.0324288179 
3.003404022 3.00297017 2.9860059145 2.9942865543 3.0084601268 3.0406033038 3.0623020261 3.0541527382 3.0960652519 
3.0766219817 3.0967690151 3.1129928763 3.1244987345 3.1386747835 3.1518350707 3.1637638644 3.1726050227 3.1819599986 
3.1764683961 3.1604092623 3.1464566346 3.1380637735 3.1315342416 3.1251282205 3.1187802768 3.1125887932 3.1068247992 
3.089845411 3.0861145111 3.0813611723 3.0739244173 3.0644597619 3.0544705204 3.0467601601 3.0391469783 3.031123767 
3.09574849 3.1195162404 3.1339347315 3.1467148359 3.15648167 3.1680173768 3.1796056908 3.1888282063 3.2012382705 
3.2153316863 3.2280121401 3.2379336248 3.244749359 3.2541719259 3.258007143 3.2599010955 3.2614759679 3.0826771436 
3.0853772482 3.0852190737 3.084729728 3.0802052449 3.0737141173 3.0638479992 3.0545414643 3.0463690215 3.0381000962 
3.0403279152 3.2621097854 3.2569031526 3.1226208286 3.2596353484 3.1155907736 3.2088274506 3.083545003 3.2497201663 
3.1032354717 3.0997539736 3.2605685271 3.0936170603 3.0860207159 3.0858318271 3.1094234816 3.2608892557 3.268364037 
3.0866932519 3.0858936255 3.0858361667 3.0929657795 3.0218385504 3.0326168756 3.0033530536 3.0032086431 2.9864097359 
2.9944986702 3.0088145062 3.0412363669 3.0629662996 3.0537825163 3.0971406386 3.0764011326 3.0964621637 3.1127429944 
3.1245222592 3.1387634417 3.1521857342 3.1643725374 3.1739161194 3.1841292896 3.179326683 3.1630840366 3.147930564 
3.1395443377 3.1328866375 3.1265796396 3.1197855979 3.1137398566 3.107975371 3.0908647697 3.0871031526 3.0821990782 
3.074719828 3.0650794031 3.0550775393 3.0472675459 3.0396607525 3.030989397 3.0966065919 3.1201988326 3.1348036423 
3.1476196696 3.157411209 3.1689503131 3.1804607708 3.1898505211 3.2023191153 3.2161031246 3.2288360906 3.2388428405 
3.2454779007 3.2547244748 3.2590837424 3.2610742865 3.2626258195 3.0798935817 3.0849493579 3.0842327211 3.0831362576 
3.0787385809 3.0723110511 3.0626297619 3.0535096933 3.0454734367 3.0373784186 3.0397889877 3.2633716312 3.2577277209 
3.1237690237 3.2606573192 3.1167439822 3.1585845018 3.0824457832 3.2502663638 3.1042848675 3.1007392782 3.2616782866 
3.0947561091 3.0844380996 3.0846010698 3.1106493208 3.2620211725 3.2655596099 3.0843330502 3.0846132056 3.0849920333 
3.0940972061 3.0216909931 3.0329366026 3.0033069612 3.0041009489 2.9870775836 2.9947904493 3.0092434686 3.0417814578 
3.0636543965 3.0534699912 3.0983142858 3.0760927806 3.095958317 3.1122358832 3.1243594351 3.1383543922 3.1520541027 
3.1646349968 3.1750571488 3.1854242862 3.1818410179 3.1662864067 3.1501322078 3.1410766542 3.1342235894 3.1280856322 
3.120964774 3.1150180477 3.1092451622 3.091923711 3.0881352822 3.0830682544 3.0755608621 3.0657113736 3.0557291533 
3.0477871682 3.0402145855 3.0306414047 3.0975793759 3.1211042086 3.135998225 3.1488861637 3.1586807991 3.1702425086 
3.181697175 3.1912540362 3.2038329972 3.2172786179 3.2300242999 3.2401419936 3.2464596581 3.2554867458 3.2600965292 
3.2620455064 3.2634967724 3.0802099708 3.0840796028 3.0833442867 3.0815137432 3.0772977692 3.070903824 3.0613956345 
3.0524680004 3.0445422032 3.03665219 3.0392569504 3.264359897 3.258535699 3.1250180765 3.2614978769 3.1179871851 
3.1390271045 3.0834005964 3.2510148201 3.1053013451 3.1017714168 3.2625681587 3.0959864004 3.0828999131 3.0831672867 
3.1120344734 3.2629228862 3.2651392037 3.0838434238 3.0832968824 3.0841994154 3.0952933368 3.0217575807 3.0334473104 
3.0034243151 3.0054135051 2.9878540206 2.9952971247 3.0097646339 3.0427151976 3.0645306902 3.0533525804 3.0996168741 
3.0756090121 3.0952777694 3.1115549089 3.1239818305 3.1377620516 3.1515981672 3.1645629612 3.1753336544 3.1864840898 
3.1842277743 3.17026014 3.1531608134 3.1427083406 3.1355567152 3.1295245743 3.1223946969 3.1164496436 3.1106119359 
3.0931062526 3.0892977184 3.0839822167 3.0764641768 3.0663973772 3.0564242051 3.0482890774 3.0407612347 3.0301053441 
3.0988141864 3.1223132255 3.1375976781 3.1505855135 3.1603805279 3.1719825262 3.1834179261 3.1931091019 3.205892296 
3.2189337826 3.2316744823 3.2419072937 3.2478967634 3.2566757062 3.2616541147 3.2634705425 3.2645850534 3.0826959982 
3.0835310235 3.0827456759 3.0802524893 3.0762262609 3.0697392281 3.060579581 3.0519012703 3.0439562546 3.0363128521 
3.0390672759 3.2653268081 3.2597396538 3.1265094238 3.2627810975 3.1193669689 3.11333252 3.0840915677 3.2521658132 
3.1064923826 3.1029269984 3.263784948 3.0973637843 3.0817363814 3.0822213621 3.1135386553 3.2640685052 3.2760334352 
3.0852684074 3.0837614959 3.0836122613 3.0966016605 3.0220799022 3.0340650361 3.0037148676 3.0074995986 2.9887476952 
2.996135169 3.0105258914 3.0439318561 3.0656985222 3.0525431048 3.1010217862 3.0745693919 3.0941159247 3.1104679124 
3.1231260981 3.1366469078 3.1504740282 3.1639865743 3.1751725653 3.1867888367 3.1858784852 3.1747069254 3.1568260478 
3.1443745672 3.1368393279 3.1308061972 3.1240287145 3.1175474409 3.1120041446 3.0943474127 3.0905097848 3.0849436504 
3.0773634265 3.0670697635 3.0570329036 3.0486500245 3.0412620034 3.0293824867 3.1002253318 3.1237921034 3.1395163484 
3.1526272743 3.1624584949 3.1740456748 3.1855456098 3.1953952406 3.2082926589 3.2210383983 3.2336426993 3.2442863025 
3.2500097545 3.2584767987 3.2636795376 3.2656545113 3.2665225605 3.0803457075 3.0820024131 3.0817944897 3.0795619986 
3.0756561288 3.0689935076 3.0602706046 3.0519239153 3.0438967359 3.0364690928 3.0394928125 3.2693366645 3.2616697554 
3.1278794306 3.264429376 3.1208634164 3.0797746293 3.081332999 3.2539938763 3.1078138965 3.1041439948 3.2656363379 
3.0988072544 3.0809324592 3.0813371853 3.1150417575 3.2660293639 3.1145496131 3.0819535331 3.0822978019 3.0821673434 
3.0976702929 3.0222812164 3.0336365184 3.0032489433 3.009600372 2.9889886897 2.9967179174 3.0110693207 3.0440231734 
3.0665190844 3.0508444756 3.1020971479 3.072020925 3.0917080014 3.1083884346 3.1212804942 3.1346796242 3.1480101928 
3.1626839127 3.1737915651 3.1862126324 3.1875867061 3.1792405442 3.1607544128 3.1458563154 3.1379880002 3.1319281089 
3.1258582261 3.1199432574 3.1137120807 3.0952835402 3.0914370146 3.0857402659 3.0780641533 3.0675180968 3.057480117 
3.0489046572 3.0415494516 3.0283029721 3.1013844427 3.1251939877 3.1414407969 3.1545973131 3.1646105284 3.1762898992 
3.1878641606 3.1979681283 3.2110156035 3.2236704259 3.2367982529 3.2470199198 3.253051591 3.2617365845 3.2687259677 
3.26996328 3.2705567256 3.079069969 3.0818689093 3.0820878935 3.0798643811 3.075691603 3.0688831356 3.0605840164 
3.0525142414 3.044446341 3.0371642624 3.0404413697 3.2663353954 3.2654313731 3.1296732819 3.2691111513 3.1223759923 
3.07729575 3.0812510231 3.256827746 3.1092427006 3.1051960739 3.2694725929 3.0999445607 3.0815134574 3.0816568219 
3.1170515639 3.26938717 3.0661172182 3.0787033207 3.0820890006 3.0818862066 3.0979642984 3.0224400745 3.0319599312 
3.0013980143 3.0065468906 2.9873157704 2.9960370095 3.0110165812 3.0436262623 3.0669451089 3.0475676512 3.1018458024 
3.0695374262 3.0891339841 3.1057199963 3.1179323996 3.1316377748 3.1444697069 3.1623068544 3.1744858349 3.1875149225 
3.1914387462 3.18389518 3.1636248579 3.1465543443 3.1387692214 3.1321679056 3.1263519007 3.1194898423 3.1143493025 
3.0956872358 3.091769759 3.0860832202 3.0785224281 3.0673334004 3.0571241276 3.0483253575 3.0409399728 3.0254085842 
3.1034146123 3.1268694341 3.1438983785 3.1573938195 3.1675062871 3.179409795 3.1907257977 3.2016339321 3.215181516 
3.2282814904 3.2419349569 3.2554404204 3.25868778 3.2669529701 3.2717549406 3.2692690897 3.2307117029 3.0784123967 
3.0828598441 3.0829183341 3.0815415968 3.0769945633 3.0707687778 3.0619131994 3.0540036269 3.0456495343 3.0381631242 
3.0421795083 3.0777811371 3.2701836163 3.1298408227 3.271908838 3.1227453973 3.0775976105 3.0824038265 3.2617375799 
3.1094466179 3.105212604 3.2703241086 3.1001908357 3.0828751487 3.0833826724 3.1172904482 3.2738291026 3.0797395948 
3.078369317 3.0828628797 3.0827154853 3.0978478521 3.0242071904 3.0342043382 3.0041111028 3.007084704 2.9887623126 
2.9991571997 3.0147716449 3.0506422635 3.0700391696 3.0494061303 3.101944863 3.0675697051 3.0887258831 3.1034792663 
3.1179046057 3.1312649376 3.1446644124 3.1657422976 3.1861834323 3.1926821085 3.1941274014 3.184851803 3.1608702952 
3.1458839563 3.137468022 3.1313629694 3.124785884 3.117543096 3.1121803392 3.0950524716 3.0924250145 3.0865050948 
3.0775175348 3.0673581321 3.0563243021 3.0469189392 3.0386642719 3.0229219534 3.103476468 3.1287224194 3.150534882 
3.1647481708 3.1737952308 3.1890149899 3.1979108415 3.2082318958 3.2255521227 3.2370566115 3.2530949372 3.262395617 