# vtk DataFile Version 4.2
vtk output
ASCII
DATASET POLYDATA
POINTS 6673 float
2626.39 -2392.09 5800 2638.91 -2401.49 5800 2667.91 -2398.08 5800 
2675.22 -2392.09 5800 2609.08 -2379.09 5800 2609.91 -2379.71 5800 
2691.9 -2379.09 5800 2591.77 -2366.09 5800 2696.91 -2375.18 5800 
2708.58 -2366.09 5800 2574.46 -2353.09 5800 2580.91 -2357.93 5800 
2725.26 -2353.09 5800 2557.15 -2340.09 5800 2725.91 -2352.58 5800 
2741.94 -2340.09 5800 2539.85 -2327.09 5800 2551.91 -2336.15 5800 
2754.92 -2329.98 5800 2758.63 -2327.08 5800 2522.54 -2314.09 5800 
2522.91 -2314.37 5800 2775.31 -2314.08 5800 2505.23 -2301.09 5800 
2783.92 -2307.37 5800 2791.99 -2301.08 5800 2487.92 -2288.09 5800 
2493.91 -2292.59 5800 2808.67 -2288.08 5800 2470.61 -2275.09 5800 
2812.92 -2284.77 5800 2825.36 -2275.08 5800 2453.3 -2262.09 5800 
2464.91 -2270.81 5800 2841.92 -2262.16 5800 2842.04 -2262.08 5800 
2435.99 -2249.09 5800 2858.72 -2249.07 5800 2420.06 -2236.09 5800 
2435.91 -2249.03 5800 2870.93 -2239.56 5800 2875.4 -2236.07 5800 
2404.78 -2223.09 5800 2406.91 -2225 5800 2892.08 -2223.07 5800 
2390.29 -2210.09 5800 2899.93 -2216.96 5800 2908.77 -2210.07 5800 
2375.81 -2197.09 5800 2377.91 -2198.98 5800 2925.45 -2197.07 5800 
2361.32 -2184.09 5800 2928.93 -2194.35 5800 2942.13 -2184.07 5800 
2346.9 -2171.09 5800 2348.91 -2172.96 5800 2957.94 -2171.75 5800 
2958.78 -2171.06 5800 2332.34 -2158.09 5800 2975.29 -2158.06 5800 
2318.14 -2145.08 5800 2319.91 -2146.93 5800 2986.94 -2149.06 5800 
2991.34 -2145.06 5800 2305.03 -2132.08 5800 3005.74 -2132.06 5800 
2290.75 -2119.08 5800 2290.92 -2119.25 5800 3011.31 -2119.06 5800 
2277.75 -2106.08 5800 3013.62 -2106.06 5800 2274.95 -2093.08 5800 
3014.54 -2093.06 5800 2273.43 -2080.08 5800 3015.1 -2080.06 5800 
2268.81 -2067.08 5800 3015.66 -2067.05 5800 2265.48 -2054.08 5800 
3015.95 -2060.5 5800 3016.22 -2054.05 5800 2264.13 -2041.08 5800 
3016.77 -2041.05 5800 2263.24 -2028.08 5800 3017.33 -2028.05 5800 
2262.46 -2015.08 5800 3017.88 -2015.05 5800 2258.87 -2002.08 5800 
2261.92 -2011.81 5800 3018.43 -2002.05 5800 2254.88 -1989.08 5800 
3018.98 -1989.05 5800 2251.67 -1976.07 5800 3019.54 -1976.05 5800 
2249.03 -1963.07 5800 3020.09 -1963.05 5800 2246.82 -1950.07 5800 
3020.64 -1950.05 5800 2244.95 -1937.07 5800 3021.19 -1937.04 5800 
2243.33 -1924.07 5800 3021.75 -1924.04 5800 2241.94 -1911.07 5800 
3022.3 -1911.04 5800 2240.32 -1898.07 5800 3022.85 -1898.04 5800 
2237.82 -1885.07 5800 3023.41 -1885.04 5800 2235.31 -1872.07 5800 
3023.96 -1872.04 5800 2232.75 -1859.07 5800 2232.93 -1859.7 5800 
3024.51 -1859.04 5800 2229.37 -1846.07 5800 3025.06 -1846.04 5800 
2226.52 -1833.06 5800 3025.62 -1833.04 5800 2224.08 -1820.06 5800 
3026.17 -1820.04 5800 2221.97 -1807.06 5800 3026.72 -1807.03 5800 
2220.13 -1794.06 5800 3027.28 -1794.03 5800 2217.79 -1781.06 5800 
3027.83 -1781.03 5800 2215.29 -1768.06 5800 3028.38 -1768.03 5800 
2212.79 -1755.06 5800 3032.16 -1755.03 5800 2210.28 -1742.06 5800 
3037.37 -1742.03 5800 2207.78 -1729.06 5800 3044.97 -1730.28 5800 
3046.03 -1729.03 5800 2205.28 -1716.06 5800 3056.07 -1716.03 5800 
2202.56 -1703.06 5800 2203.94 -1709.29 5800 3066.44 -1703.03 5800 
2199.96 -1690.05 5800 3073.98 -1693.57 5800 3076.81 -1690.02 5800 
2197.51 -1677.05 5800 3087.17 -1677.02 5800 2194.91 -1664.05 5800 
3097.54 -1664.02 5800 2192.32 -1651.05 5800 3102.98 -1657.19 5800 
3107.9 -1651.02 5800 2189.72 -1638.05 5800 3118.27 -1638.02 5800 
2187.13 -1625.05 5800 3128.63 -1625.02 5800 2184.53 -1612.05 5800 
3131.98 -1620.82 5800 3139 -1612.02 5800 2181.94 -1599.05 5800 
3149.37 -1599.01 5800 2179.34 -1586.05 5800 3159.73 -1586.01 5800 
2176.74 -1573.05 5800 3160.99 -1584.44 5800 3170.1 -1573.01 5800 
2174.15 -1560.05 5800 2174.95 -1564.08 5800 3180.46 -1560.01 5800 
2171.55 -1547.04 5800 3189.99 -1547.15 5800 3190.09 -1547.01 5800 
2168.96 -1534.04 5800 3196.51 -1534.01 5800 2166.41 -1521.04 5800 
3202.94 -1521.01 5800 2158.86 -1508.04 5800 3209.37 -1508.01 5800 
2148.67 -1495.04 5800 3215.8 -1495 5800 2147.01 -1482.04 5800 
3219 -1488.54 5800 3220.87 -1482 5800 2145.97 -1469.04 5800 
3224.04 -1469 5800 2145.4 -1456.04 5800 2145.96 -1468.98 5800 
3224.96 -1456 5800 2144.84 -1443.04 5800 3225.45 -1443 5800 
2144.28 -1430.04 5800 3225.93 -1430 5800 2143.72 -1417.04 5800 
3226.42 -1417 5800 2143.15 -1404.03 5800 3226.9 -1404 5800 
2142.59 -1391.03 5800 3227.39 -1391 5800 2142.03 -1378.03 5800 
3227.87 -1377.99 5800 2141.47 -1365.03 5800 3228.36 -1364.99 5800 
2140.91 -1352.03 5800 3228.84 -1351.99 5800 2140.35 -1339.03 5800 
3229.33 -1338.99 5800 2139.78 -1326.03 5800 3229.81 -1325.99 5800 
2139.22 -1313.03 5800 3230.3 -1312.99 5800 2138.66 -1300.03 5800 
3230.78 -1299.99 5800 2138.1 -1287.03 5800 3231.4 -1286.99 5800 
2137.56 -1274.02 5800 3232.02 -1273.99 5800 2137.04 -1261.02 5800 
3232.62 -1260.99 5800 2136.52 -1248.02 5800 3233.21 -1247.98 5800 
2136.01 -1235.02 5800 3233.8 -1234.98 5800 2135.5 -1222.02 5800 
3234.37 -1221.98 5800 2135.06 -1209.02 5800 3234.94 -1208.98 5800 
2134.63 -1196.02 5800 3235.5 -1195.98 5800 2134.2 -1183.02 5800 
3236.1 -1182.98 5800 2133.76 -1170.02 5800 3236.78 -1169.98 5800 
2133.33 -1157.02 5800 3237.46 -1156.98 5800 2132.9 -1144.01 5800 
3238.14 -1143.98 5800 2132.47 -1131.01 5800 3238.82 -1130.98 5800 
2132.03 -1118.01 5800 3239.5 -1117.97 5800 2131.6 -1105.01 5800 
3240.64 -1104.97 5800 2130.46 -1092.01 5800 3242.27 -1091.97 5800 
2128.02 -1079.01 5800 3243.9 -1078.97 5800 2125.59 -1066.01 5800 
3245.61 -1065.97 5800 2123.15 -1053.01 5800 3247.32 -1052.97 5800 
2120.71 -1040.01 5800 3248.03 -1047.63 5800 3249.05 -1039.97 5800 
2118.27 -1027.01 5800 3250.78 -1026.97 5800 2115.83 -1014.01 5800 
2116.99 -1020.19 5800 3252.51 -1013.97 5800 2113.73 -1001 5800 
3254.24 -1000.96 5800 2112.32 -988.003 5800 3255.97 -987.964 5800 
2111 -975.002 5800 3257.7 -974.963 5800 2113.4 -962.001 5800 
3259.43 -961.962 5800 2115.82 -949 5800 3261.16 -948.961 5800 
2117 -942.663 5800 2118.18 -935.999 5800 3262.88 -935.959 5800 
2120.48 -922.998 5800 3263.32 -922.958 5800 2122.79 -909.997 5800 
3262.61 -909.957 5800 2125.09 -896.996 5800 3262.07 -896.956 5800 
2127.39 -883.995 5800 3260.38 -883.956 5800 2129.7 -870.994 5800 
3258.18 -870.955 5800 2132 -857.992 5800 2569.91 -857.977 5800 
2581.02 -862.629 5800 2603.82 -857.976 5800 3255.98 -857.954 5800 
2134.3 -844.991 5800 2544.64 -844.977 5800 2552.02 -850.235 5800 
2610.02 -856.711 5800 2639.03 -850.362 5800 2657.71 -844.973 5800 
3253.78 -844.953 5800 2136.6 -831.99 5800 2526.39 -831.977 5800 
2668.03 -841.997 5800 2697.03 -833.709 5800 2726.03 -832.882 5800 
2727.03 -831.97 5800 3251.58 -831.952 5800 2138.89 -818.989 5800 
2510.06 -818.976 5800 2523.02 -829.581 5800 2739.74 -818.969 5800 
3249.38 -818.951 5800 2141.19 -805.988 5800 2494.27 -805.976 5800 
2750.17 -805.967 5800 3248.05 -812.016 5800 3246.86 -805.95 5800 
2143.5 -792.987 5800 2477.23 -792.976 5800 2494.02 -805.775 5800 
2755.03 -801.926 5800 2765.35 -792.966 5800 3243.85 -792.949 5800 
2143.39 -779.986 5800 2456.56 -779.975 5800 2465.02 -785.548 5800 
2780.4 -779.964 5800 3240.99 -779.948 5800 2142.36 -766.985 5800 
2440.97 -766.975 5800 2784.04 -776.821 5800 2795.45 -766.963 5800 
3238.96 -766.947 5800 2141.01 -753.984 5800 2431.82 -753.974 5800 
2436.03 -761.864 5800 2810.49 -753.961 5800 3237.27 -753.946 5800 
2139.57 -740.983 5800 2424.9 -740.973 5800 2813.04 -751.87 5800 
2828.22 -740.959 5800 3235.84 -740.945 5800 2138.12 -727.982 5800 
2417.98 -727.973 5800 2842.04 -731.028 5800 2846.31 -727.958 5800 
3234.61 -727.944 5800 2136.67 -714.981 5800 2411.05 -714.972 5800 
2861.88 -714.956 5800 3234.02 -714.943 5800 2135.21 -701.98 5800 
2404.1 -701.971 5800 2407.03 -707.454 5800 2871.04 -703.086 5800 
2871.52 -701.955 5800 3234 -701.943 5800 2133.76 -688.979 5800 
2397.14 -688.97 5800 2877.01 -688.954 5800 3233.98 -688.941 5800 
2134.37 -675.978 5800 2390.19 -675.97 5800 2882.5 -675.953 5800 
3233.96 -675.94 5800 2137.16 -662.977 5800 2383.23 -662.969 5800 
2888.09 -662.951 5800 3233.93 -662.94 5800 2140.43 -649.976 5800 
2376.22 -649.968 5800 2378.03 -653.242 5800 2893.82 -649.95 5800 
3233.91 -649.938 5800 2143.69 -636.975 5800 2367.7 -636.967 5800 
2899.66 -636.949 5800 3233.88 -636.938 5800 2146.03 -627.714 5800 
2146.92 -623.974 5800 2355.54 -623.967 5800 2900.05 -636.075 5800 
2905.64 -623.948 5800 3233.86 -623.936 5800 2149.32 -610.973 5800 
2346.68 -610.966 5800 2349.03 -615.68 5800 2911.71 -610.947 5800 
3233.84 -610.935 5800 2151.02 -597.972 5800 2340.15 -597.965 5800 
2919.99 -597.945 5800 3233.81 -597.935 5800 2151.97 -584.971 5800 
2333.55 -584.965 5800 2928.58 -584.944 5800 3234.2 -584.933 5800 
2150.13 -571.97 5800 2326.9 -571.964 5800 2929.06 -584.226 5800 
2936.11 -571.943 5800 3235.82 -571.932 5800 2148.69 -558.969 5800 
2320.18 -558.963 5800 2943.15 -558.942 5800 3237.43 -558.931 5800 
2147.27 -545.968 5800 2313.78 -545.962 5800 2320.04 -558.68 5800 
2949.82 -545.94 5800 3239.04 -545.93 5800 1740.02 -535.665 5800 
1714.27 -532.982 5800 1769.02 -538.761 5800 1798.02 -537.789 5800 
1827.02 -533.68 5800 1828.35 -532.978 5800 2145.83 -532.967 5800 
2146.03 -534.697 5800 2307.66 -532.961 5800 2956.05 -532.939 5800 
3240.65 -532.929 5800 1595.02 -520.555 5800 1589.54 -519.985 5800 
1624.02 -523.577 5800 1653.02 -526.599 5800 1682.02 -529.621 5800 
1711.02 -532.643 5800 1856.02 -522.028 5800 1858.59 -519.976 5800 
2143.99 -519.966 5800 2301.55 -519.961 5800 2576.45 -519.951 5800 
2581.05 -521.635 5800 2584.92 -519.951 5800 2958.06 -528.67 5800 
2962.34 -519.938 5800 3242.25 -519.928 5800 1566.01 -514.591 5800 
1560.24 -506.985 5800 1874.47 -506.974 5800 2145.02 -506.965 5800 
2295.43 -506.96 5800 2533.45 -506.952 5800 2552.05 -514.362 5800 
2610.05 -507.905 5800 2612.16 -506.949 5800 2968.58 -506.937 5800 
3243.84 -506.927 5800 3596.08 -511.683 5800 3593.32 -506.915 5800 
3625.09 -512.338 5800 3645.7 -506.913 5800 1550.28 -493.985 5800 
1885.03 -498.032 5800 1889.73 -493.973 5800 2145.98 -493.964 5800 
[...]
POINT_DATA 6673
SCALARS Pressure double
LOOKUP_TABLE default
3.0932710339 3.0932710339 3.0932710339 3.0932710339 3.0932710339 3.0932710339 3.0932710339 3.0932710339 3.0932710339 
3.0932710339 3.0932710339 3.0932710339 3.0932710339 3.0932710339 3.0932710339 3.0932710339 3.0932710339 3.0932710339 
3.0932710339 3.0932710339 3.0932710339 3.0932710339 3.0932710339 3.0932710339 3.0932710339 3.0932710339 3.0932710339 
3.0932710339 3.0932710339 3.0932710339 3.0932710339 3.0932710339 3.0932710339 3.0932710339 3.0932710339 3.0932710339 
3.0932710339 3.0932710339 3.0932710339 3.0932710339 3.0932710339 3.0932710339 3.0932710339 3.0932710339 3.0932710339 
3.0932710339 3.0932710339 3.0932710339 3.0932710339 3.0932710339 3.0932710339 3.0932710339 3.0932710339 3.0932710339 
3.0932710339 3.0932710339 3.0932710339 3.0932710339 3.0932710339 3.0932710339 3.0932710339 3.0932710339 3.0932710339 
3.0932710339 3.0932710339 3.0932710339 3.0932710339 3.0932710339 3.0932710339 3.0932710339 3.0932710339 3.0932710339 
3.0932710339 3.0932710339 3.0932710339 3.0932710339 3.0932710339 3.0932710339 3.0932710339 3.0932710339 3.0932710339 
3.0932710339 3.0932710339 3.0932710339 3.0932710339 3.0932710339 3.0932710339 3.0932710339 3.0932710339 3.0932710339 
3.0932710339 3.0932710339 3.0932710339 3.0932710339 3.0932710339 3.0932710339 3.0932710339 3.0932710339 3.0932710339 
3.0932710339 3.0932710339 3.0932710339 3.0932710339 3.0932710339 3.0932710339 3.0932710339 3.0932710339 3.0932710339 
3.0932710339 3.0932710339 3.0932710339 3.0932710339 3.0932710339 3.0932710339 3.0932710339 3.0932710339 3.0932710339 
3.0932710339 3.0932710339 3.0932710339 3.0932710339 3.0932710339 3.0932710339 3.0932710339 3.0932710339 3.0932710339 
3.0932710339 3.0932710339 3.0932710339 3.0932710339 3.0932710339 3.0932710339 3.0932710339 3.0932710339 3.0932710339 
3.0932710339 3.0932710339 3.0932710339 3.0932710339 3.0932710339 3.0932710339 3.0932710339 3.0932710339 3.0932710339 
3.0932710339 3.0932710339 3.0932710339 3.0932710339 3.0932710339 3.0932710339 3.0932710339 3.0932710339 3.0932710339 
3.0932710339 3.0932710339 3.0932710339 3.0932710339 3.0932710339 3.0932710339 3.0932710339 3.0932710339 3.0932710339 
3.0932710339 3.0932710339 3.0932710339 3.0932710339 3.0932710339 3.0932710339 3.0932710339 3.0932710339 3.0932710339 
3.0932710339 3.0932710339 3.0932710339 3.0932710339 3.0932710339 3.0932710339 3.0932710339 3.0932710339 3.0932710339 
3.0932710339 3.0932710339 3.0932710339 3.0932710339 3.0932710339 3.0932710339 3.0932710339 3.0932710339 3.0932710339 
3.0932710339 3.0932710339 3.0932710339 3.0932710339 3.0932710339 3.0932710339 3.0932710339 3.0932710339 3.0932710339 
3.0932710339 3.0932710339 3.0932710339 3.0932710339 3.0932710339 3.0932710339 3.0932710339 3.0932710339 3.0932710339 
3.0932710339 3.0932710339 3.0932710339 3.0932710339 3.0932710339 3.0932710339 3.0932710339 3.0932710339 3.0932710339 
3.0932710339 3.0932710339 3.0932710339 3.0932710339 3.0932710339 3.0932710339 3.0932710339 3.0932710339 3.0932710339 
3.0932710339 3.0932710339 3.0932710339 3.0932710339 3.0932710339 3.0932710339 3.0932710339 3.0932710339 3.0932710339 
3.0932710339 3.0932710339 3.0932710339 3.0932710339 3.0932710339 3.0932710339 3.0932710339 3.0932710339 3.0932710339 
3.0932710339 3.0932710339 3.0932710339 3.0932710339 3.0932710339 3.0932710339 3.0932710339 3.0932710339 3.0932710339 
3.0932710339 3.0932710339 3.0932710339 3.0932710339 3.0932710339 3.0932710339 3.0932710339 3.0932710339 3.0932710339 
3.0932710339 3.0932710339 3.0932710339 3.0932710339 3.0932710339 3.0932710339 3.0932710339 3.0932710339 3.0932710339 
3.0932710339 3.0932710339 3.0932710339 3.0932710339 3.0932710339 3.0932710339 3.0932710339 3.0932710339 3.1078652246 
3.1078652246 3.1078652246 3.0932710339 3.0932710339 3.1078652246 3.1078652246 3.1078652246 3.1078652246 3.1078652246 
3.0932710339 3.0932710339 3.1078652246 3.1078652246 3.1078652246 3.1078652246 3.1078652246 3.0932710339 3.0932710339 
3.1078652246 3.1078652246 3.1078652246 3.0932710339 3.0932710339 3.1078652246 3.1078652246 3.0932710339 3.0932710339 
3.0932710339 3.1078652246 3.1078652246 3.1078652246 3.1078652246 3.0932710339 3.0932710339 3.1078652246 3.1078652246 
3.1078652246 3.0932710339 3.0932710339 3.1078652246 3.1078652246 3.1078652246 3.0932710339 3.0932710339 3.1078652246 
3.1078652246 3.1078652246 3.0932710339 3.0932710339 3.1078652246 3.1078652246 3.1078652246 3.0932710339 3.0932710339 
3.1078652246 3.1078652246 3.1078652246 3.0932710339 3.0932710339 3.1078652246 3.1078652246 3.0932710339 3.0932710339 
3.1078652246 3.1078652246 3.1078652246 3.1078652246 3.0932710339 3.0932710339 3.1078652246 3.1078652246 3.0932710339 
3.0932710339 3.1078652246 3.1078652246 3.0932710339 3.0932710339 3.1078652246 3.1078652246 3.0932710339 3.0932710339 
3.1078652246 3.1078652246 3.1078652246 3.0932710339 3.0932710339 3.1078652246 3.1078652246 3.0932710339 3.0932710339 
3.0932710339 3.1078652246 3.1078652246 3.1078652246 3.0932710339 3.0932710339 3.1078652246 3.1078652246 3.1078652246 
3.0932710339 3.0932710339 3.1078652246 3.1078652246 3.0932710339 3.0932710339 3.1078652246 3.1078652246 3.0932710339 
3.0932710339 3.1078652246 3.1078652246 3.1078652246 3.0932710339 3.0932710339 3.1078652246 3.1078652246 3.0932710339 
3.0932710339 3.1078652246 3.1078652246 3.1078652246 3.0932710339 3.0786768432 3.0786768432 3.0786768432 3.0786768432 
3.0786768432 3.0786768432 3.0932710339 3.0932710339 3.1078652246 3.1078652246 3.0932710339 3.0786768432 3.0786768432 
3.0786768432 3.0786768432 3.0786768432 3.0786768432 3.0786768432 3.0786768432 3.0932710339 3.1078652246 3.1224594153 
3.1224594153 3.1224594153 3.1078652246 3.1078652246 3.0932710339 3.0786768432 3.0786768432 3.0786768432 3.0932710339 
3.1078652246 3.1224594153 3.1224594153 3.1224594153 3.1224594153 3.1078652246 3.0932710339 3.0786768432 3.0786768432 
3.0786768432 3.0786768432 3.0786768432 3.0786768432 3.0786768432 3.0932710339 3.1078652246 3.1078652246 3.1224594153 
3.1224594153 3.1224594153 3.1224594153 3.1078652246 3.0932710339 3.0786768432 3.0786768432 3.0786768432 3.0786768432 
3.0786768432 3.0786768432 3.0932710339 3.0932710339 3.1078652246 3.1224594153 3.1224594153 3.1224594153 3.1224594153 
3.1078652246 3.0932710339 3.0786768432 3.0786768432 3.0786768432 3.0786768432 3.0786768432 3.0786768432 3.0786768432 
3.0932710339 3.1078652246 3.1224594153 3.1224594153 3.1224594153 3.1078652246 3.1078652246 3.0932710339 3.0932710339 
3.0786768432 3.0786768432 3.0786768432 3.0786768432 3.0786768432 3.0932710339 3.1078652246 3.1224594153 3.1224594153 
3.1224594153 3.1078652246 3.0932710339 3.0786768432 3.0786768432 3.0786768432 3.0786768432 3.0786768432 3.0786768432 
3.0786768432 3.0932710339 3.1078652246 3.1224594153 3.1224594153 3.1224594153 3.1078652246 3.0932710339 3.0786768432 
3.0786768432 3.0786768432 3.0786768432 3.0786768432 3.0932710339 3.1078652246 3.1224594153 3.1224594153 3.1224594153 
3.1078652246 3.0932710339 3.0786768432 3.0786768432 3.0786768432 3.0786768432 3.0786768432 3.0786768432 3.0932710339 
3.1078652246 3.1224594153 3.1224594153 3.1224594153 3.1078652246 3.0932710339 3.0786768432 3.0786768432 3.0786768432 
3.0786768432 3.0932710339 3.1078652246 3.1224594153 3.1224594153 3.1224594153 3.1078652246 3.1078652246 3.0932710339 
3.0786768432 3.0786768432 3.0786768432 3.0786768432 3.0786768432 3.0786768432 3.0786768432 3.0786768432 3.0932710339 
3.1078652246 3.1224594153 3.1224594153 3.1078652246 3.0932710339 3.0786768432 3.0786768432 3.0786768432 3.0786768432 
3.0932710339 3.1078652246 3.1078652246 3.1224594153 3.1224594153 3.1224594153 3.1224594153 3.1078652246 3.0932710339 
3.0786768432 3.0786768432 3.0786768432 3.0786768432 3.0786768432 3.0932710339 3.1078652246 3.1224594153 3.1224594153 
3.1078652246 3.0932710339 3.0786768432 3.0786768432 3.0786768432 3.0786768432 3.0786768432 3.0786768432 3.0932710339 
3.1078652246 3.1224594153 3.1224594153 3.1078652246 3.0932710339 3.0786768432 3.0786768432 3.0786768432 3.0786768432 
3.0932710339 3.1078652246 3.1224594153 3.1224594153 3.1224594153 3.1224594153 3.1078652246 3.0932710339 3.0786768432 
3.0786768432 3.0786768432 3.0786768432 3.0786768432 3.0786768432 3.0786768432 3.0932710339 3.1078652246 3.1224594153 
3.1224594153 3.1078652246 3.1078652246 3.0932710339 3.0786768432 3.0786768432 3.0786768432 3.0786768432 3.0932710339 
3.1078652246 3.1224594153 3.137053606 3.137053606 3.137053606 3.137053606 3.137053606 3.137053606 3.1224594153 
3.1078652246 3.0932710339 3.0786768432 3.0786768432 3.0786768432 3.0786768432 3.0786768432 3.0932710339 3.1078652246 
3.1224594153 3.137053606 3.137053606 3.137053606 3.137053606 3.1224594153 3.1078652246 3.0932710339 3.0786768432 
3.0786768432 3.0786768432 3.0786768432 3.0786768432 3.0932710339 3.1078652246 3.1224594153 3.1224594153 3.137053606 
3.137053606 3.1224594153 3.1224594153 3.1078652246 3.0932710339 3.0786768432 3.0786768432 3.0786768432 3.0786768432 
3.0932710339 3.1078652246 3.1224594153 3.137053606 3.137053606 3.137053606 3.137053606 3.1224594153 3.1078652246 
3.0932710339 3.0786768432 3.0786768432 3.0786768432 3.0786768432 3.0786768432 3.0786768432 3.0932710339 3.1078652246 
3.1078652246 3.1224594153 3.137053606 3.137053606 3.137053606 3.1224594153 3.1078652246 3.0932710339 3.0786768432 
3.0786768432 3.0786768432 3.0786768432 3.0932710339 3.1078652246 3.1224594153 3.137053606 3.137053606 3.137053606 
3.1224594153 3.1078652246 3.0932710339 3.0786768432 3.0786768432 3.0786768432 3.0786768432 3.0932710339 3.1078652246 
3.1224594153 3.1224594153 3.137053606 3.137053606 3.137053606 3.1224594153 3.1078652246 3.0932710339 3.0786768432 
3.0786768432 3.0786768432 3.0786768432 3.0640826525 3.0640826525 3.0640826525 3.0640826525 3.0640826525 3.0640826525 
3.0786768432 3.0932710339 3.1078652246 3.1224594153 3.137053606 3.137053606 3.1224594153 3.1224594153 3.1078652246 
3.0932710339 3.0786768432 3.0786768432 3.0786768432 3.0786768432 3.0640826525 3.0640826525 3.0640826525 3.0640826525 
3.0640826525 3.0786768432 3.0932710339 3.1078652246 3.1224594153 3.137053606 3.137053606 3.1224594153 3.1078652246 
3.0932710339 3.0786768432 3.0786768432 3.0786768432 3.0640826525 3.0640826525 3.0640826525 3.0786768432 3.0932710339 
3.1078652246 3.1224594153 3.137053606 3.137053606 3.137053606 3.137053606 3.1224594153 3.1078652246 3.0932710339 
3.0786768432 3.0786768432 3.0786768432 3.0786768432 3.0640826525 3.0640826525 3.0640826525 3.0786768432 3.0932710339 
3.1078652246 3.1224594153 3.1224594153 3.137053606 3.137053606 3.1224594153 3.1078652246 3.0932710339 3.0786768432 
3.0786768432 3.0786768432 3.0640826525 3.0640826525 3.0640826525 3.0786768432 3.0786768432 3.0932710339 3.1078652246 
3.1224594153 3.137053606 3.137053606 3.137053606 3.1224594153 3.1078652246 3.0932710339 3.0786768432 3.0786768432 
3.0786768432 3.0640826525 3.0640826525 3.0786768432 3.0932710339 3.1078652246 3.1078652246 3.1224594153 3.137053606 
3.1516477967 3.1516477967 3.1516477967 3.1516477967 3.1516477967 3.1516477967 3.137053606 3.1224594153 3.1078652246 
3.1078652246 3.0932710339 3.0786768432 3.0786768432 3.0786768432 3.0786768432 3.0786768432 3.0786768432 3.0786768432 
3.0786768432 3.0786768432 3.0640826525 3.0640826525 3.0786768432 3.0932710339 3.1078652246 3.1224594153 3.137053606 
3.137053606 3.1516477967 3.1516477967 3.1516477967 3.1516477967 3.137053606 3.1224594153 3.1078652246 3.1078652246 
3.0932710339 3.0786768432 3.0786768432 3.0786768432 3.0786768432 3.0786768432 3.0786768432 3.0640826525 3.0640826525 
3.0786768432 3.0932710339 3.1078652246 3.1224594153 3.1224594153 3.137053606 3.1516477967 3.1516477967 3.1516477967 
3.137053606 3.1224594153 3.1078652246 3.0932710339 3.0786768432 3.0786768432 3.0786768432 3.0786768432 3.0640826525 
3.0640826525 3.0494884618 3.0494884618 3.0494884618 3.0494884618 3.0494884618 3.0640826525 3.0640826525 3.0786768432 
3.0932710339 3.1078652246 3.1224594153 3.137053606 3.1516477967 3.1516477967 3.1516477967 3.137053606 3.1224594153 
3.1078652246 3.0932710339 3.0786768432 3.0786768432 3.0786768432 3.0786768432 3.0640826525 3.0494884618 3.0494884618 
3.0494884618 3.0494884618 3.0640826525 3.0786768432 3.0932710339 3.1078652246 3.1224594153 3.137053606 3.1516477967 
3.1516477967 3.1516477967 3.137053606 3.1224594153 3.1078652246 3.0932710339 3.0786768432 3.0640826525 3.0640826525 
3.0640826525 3.0640826525 3.0786768432 3.0786768432 3.0786768432 3.0640826525 3.0494884618 3.0494884618 3.0494884618 
3.0640826525 3.0786768432 3.0932710339 3.1078652246 3.1224594153 3.137053606 3.137053606 3.1516477967 3.1516477967 
3.137053606 3.1224594153 3.1078652246 3.0932710339 3.0932710339 3.0786768432 3.0640826525 3.0640826525 3.0640826525 
3.0786768432 3.0786768432 3.0640826525 3.0494884618 3.0494884618 3.0640826525 3.0786768432 3.0932710339 3.1078652246 
3.1078652246 3.1224594153 3.1224594153 3.137053606 3.1516477967 3.1516477967 3.137053606 3.1224594153 3.1078652246 
3.0932710339 3.0786768432 3.0786768432 3.0640826525 3.0640826525 3.0640826525 3.0640826525 3.0786768432 3.0786768432 
3.0786768432 3.0640826525 3.0494884618 3.0348942711 3.0348942711 3.0348942711 3.0348942711 3.0348942711 3.0494884618 
3.0494884618 3.0640826525 3.0786768432 3.0932710339 3.0932710339 3.1078652246 3.1224594153 3.137053606 3.1516477967 
3.1516477967 2.9473291268 2.9473291268 2.9619233175 2.9619233175 2.9765175082 2.9765175082 2.991111699 2.991111699 
3.0057058897 3.0057058897 3.0203000804 3.0203000804 3.0348942711 3.0348942711 3.0494884618 3.0494884618 3.0640826525 
3.0640826525 3.0786768432 3.0786768432 3.0932710339 3.0932710339 3.1078652246 3.1078652246 3.1224594153 3.1224594153 
3.137053606 3.137053606 3.1516477967 3.1516477967 2.9473291268 2.9619233175 2.9765175082 2.991111699 3.0057058897 
3.0203000804 3.0348942711 3.0494884618 3.0640826525 3.0786768432 3.0932710339 3.1078652246 3.1224594153 3.137053606 
3.1516477967 2.9473291268 2.9619233175 2.9765175082 2.991111699 3.0057058897 3.0203000804 3.0348942711 3.0494884618 
3.0640826525 3.0786768432 3.0932710339 3.1078652246 3.1224594153 3.137053606 3.1516477967 2.9473291268 2.9619233175 
2.9765175082 2.991111699 3.0057058897 3.0203000804 3.0348942711 3.0494884618 3.0640826525 3.0786768432 3.0932710339 
3.1078652246 3.1224594153 3.137053606 3.1516477967 2.9473291268 2.9619233175 2.9765175082 2.991111699 3.0057058897 
3.0203000804 3.0348942711 3.0494884618 3.0640826525 3.0786768432 3.0932710339 3.1078652246 3.1224594153 3.137053606 
3.1516477967 2.9473291268 2.9619233175 2.9765175082 2.991111699 3.0057058897 3.0203000804 3.0348942711 3.0494884618 
3.0640826525 3.0786768432 3.0932710339 3.1078652246 3.1224594153 3.137053606 3.1516477967 2.9473291268 2.9619233175 
2.9765175082 2.991111699 3.0057058897 3.0203000804 3.0348942711 3.0494884618 3.0640826525 3.0786768432 3.0932710339 
3.1078652246 3.1224594153 3.137053606 3.1516477967 2.9473291268 2.9619233175 2.9765175082 2.991111699 3.0057058897 
3.0203000804 3.0348942711 3.0494884618 3.0640826525 3.0786768432 3.0932710339 3.1078652246 3.1224594153 3.137053606 
3.1516477967 2.9473291268 2.9619233175 2.9765175082 2.991111699 3.0057058897 3.0203000804 3.0348942711 3.0494884618 
3.0640826525 3.0786768432 3.0932710339 3.1078652246 3.1224594153 3.137053606 2.9473291268 2.9619233175 2.9765175082 
2.991111699 3.0057058897 3.0203000804 3.0348942711 3.0494884618 3.0640826525 3.0786768432 3.0932710339 3.1078652246 
3.1224594153 3.137053606 2.9473291268 2.9619233175 2.9765175082 2.991111699 3.0057058897 3.0203000804 3.0348942711 
3.0494884618 3.0640826525 3.0786768432 3.0932710339 3.1078652246 3.1224594153 3.137053606 2.9473291268 2.9619233175 
2.9765175082 2.991111699 3.0057058897 3.0203000804 3.0348942711 3.0494884618 3.0640826525 3.0786768432 3.0932710339 
3.1078652246 3.1224594153 3.137053606 3.137053606 3.1224594153 3.1078652246 3.0932710339 3.0786768432 3.0640826525 
3.0640826525 3.0640826525 3.0786768432 3.0786768432 3.0786768432 3.0640826525 3.0494884618 3.0348942711 3.0348942711 
3.0494884618 3.0640826525 3.0786768432 3.0932710339 3.1078652246 3.1224594153 3.137053606 3.137053606 2.9473291268 
2.9473291268 2.9619233175 2.9619233175 2.9765175082 2.9765175082 2.991111699 2.991111699 3.0057058897 3.0057058897 
3.0203000804 3.0203000804 3.0348942711 3.0348942711 3.0494884618 3.0494884618 3.0640826525 3.0640826525 3.0786768432 
3.0786768432 3.0932710339 3.0932710339 3.1078652246 3.1078652246 3.1224594153 3.1224594153 3.137053606 3.137053606 
2.9473291268 2.9619233175 2.9765175082 2.991111699 3.0057058897 3.0203000804 3.0348942711 3.0494884618 3.0640826525 
3.0786768432 3.0932710339 3.1078652246 3.1224594153 3.137053606 2.9473291268 2.9619233175 2.9765175082 2.991111699 
3.0057058897 3.0203000804 3.0348942711 3.0494884618 3.0640826525 3.0786768432 3.0932710339 3.1078652246 3.1224594153 
3.137053606 3.1516477967 2.9473291268 2.9619233175 2.9765175082 2.991111699 3.0057058897 3.0203000804 3.0348942711 
3.0494884618 3.0640826525 3.0786768432 3.0932710339 3.1078652246 3.1224594153 3.137053606 3.1516477967 2.9473291268 
2.9619233175 2.9765175082 2.991111699 3.0057058897 3.0203000804 3.0348942711 3.0494884618 3.0640826525 3.0786768432 
3.0932710339 3.1078652246 3.1224594153 3.137053606 2.9473291268 2.9619233175 2.9765175082 2.991111699 3.0057058897 
3.0203000804 3.0348942711 3.0494884618 3.0640826525 3.0786768432 3.0932710339 3.1078652246 3.1224594153 2.9473291268 
2.9619233175 2.9765175082 2.991111699 3.0057058897 3.0203000804 3.0348942711 3.0494884618 3.0640826525 3.0786768432 
3.0932710339 3.1078652246 3.1224594153 2.9473291268 2.9619233175 2.9765175082 2.991111699 3.0057058897 3.0203000804 
3.0348942711 3.0494884618 3.0640826525 3.0786768432 3.0932710339 3.1078652246 3.1224594153 2.9473291268 2.9619233175 
2.9765175082 2.991111699 3.0057058897 3.0203000804 3.0348942711 3.0494884618 3.0640826525 3.0786768432 3.0932710339 
3.1078652246 3.1224594153 2.9473291268 2.9619233175 2.9765175082 2.991111699 3.0057058897 3.0203000804 3.0348942711 
3.0494884618 3.0640826525 3.0786768432 3.0932710339 3.1078652246 3.1224594153 2.9473291268 2.9619233175 2.9765175082 
2.991111699 3.0057058897 3.0203000804 3.0348942711 3.0494884618 3.0640826525 3.0786768432 3.0932710339 3.1078652246 
3.1224594153 2.9473291268 2.9619233175 2.9765175082 2.991111699 3.0057058897 3.0203000804 3.0348942711 3.0494884618 
3.0640826525 3.0786768432 3.0932710339 3.1078652246 2.9473291268 2.9619233175 2.9765175082 2.991111699 3.0057058897 
3.0203000804 3.0348942711 3.0494884618 3.0640826525 3.0786768432 3.0932710339 3.1078652246 3.1078652246 3.0932710339 
3.0786768432 3.0640826525 3.0640826525 3.0640826525 3.0786768432 3.0786768432 3.0786768432 3.0640826525 3.0494884618 
3.0348942711 3.0348942711 3.0348942711 3.0494884618 3.0640826525 3.0786768432 3.0932710339 2.9473291268 2.9473291268 
2.9619233175 2.9619233175 2.9765175082 2.9765175082 2.991111699 2.991111699 3.0057058897 3.0057058897 3.0203000804 
3.0203000804 3.0348942711 3.0348942711 3.0494884618 3.0494884618 3.0640826525 3.0640826525 3.0786768432 3.0786768432 
3.0932710339 3.0932710339 3.1078652246 2.9473291268 2.9619233175 2.9765175082 2.991111699 3.0057058897 3.0203000804 
3.0348942711 3.0494884618 3.0640826525 3.0786768432 3.0932710339 3.1078652246 3.1224594153 2.9473291268 2.9619233175 
2.9765175082 2.991111699 3.0057058897 3.0203000804 3.0348942711 3.0494884618 3.0640826525 3.0786768432 3.0932710339 
3.1078652246 3.1224594153 3.137053606 2.9473291268 2.9619233175 2.9765175082 2.991111699 3.0057058897 3.0203000804 
3.0348942711 3.0494884618 3.0640826525 3.0786768432 3.0932710339 3.1078652246 2.9473291268 2.9619233175 2.9765175082 
2.991111699 3.0057058897 3.0203000804 3.0348942711 3.0494884618 3.0640826525 3.0786768432 3.0932710339 3.1078652246 
2.9473291268 2.9619233175 2.9765175082 2.991111699 3.0057058897 3.0203000804 3.0348942711 3.0494884618 3.0640826525 
3.0786768432 3.0932710339 3.1078652246 2.9473291268 2.9619233175 2.9765175082 2.991111699 3.0057058897 3.0203000804 