# vtk DataFile Version 4.2
vtk output
ASCII
DATASET POLYDATA
POINTS 7384 float
1618.73 -2907.13 0 1627.87 -2913.88 0 1664.87 -2908.05 0 
1673.42 -2907.13 0 1572.98 -2890.13 0 1590.87 -2896.78 0 
1701.88 -2904.06 0 1738.88 -2900.06 0 1775.88 -2896.07 0 
1812.88 -2892.08 0 1831.01 -2890.12 0 1527.23 -2873.13 0 
1553.87 -2883.03 0 1849.88 -2888.08 0 1886.88 -2884.09 0 
1923.88 -2880.1 0 1960.88 -2876.11 0 1988.61 -2873.12 0 
1481.49 -2856.13 0 1516.87 -2869.28 0 1997.89 -2872.11 0 
2034.89 -2868.12 0 2071.89 -2864.13 0 2108.89 -2860.14 0 
2145.89 -2856.14 0 2146.2 -2856.11 0 1435.74 -2839.13 0 
1442.87 -2841.78 0 1479.87 -2855.53 0 2182.89 -2852.15 0 
2219.89 -2848.16 0 2225.44 -2839.11 0 1389.99 -2822.13 0 
1405.87 -2828.03 0 2228.27 -2822.11 0 1344.24 -2805.13 0 
1368.87 -2814.28 0 2231.48 -2805.1 0 1298.49 -2788.13 0 
1331.87 -2800.53 0 2234.68 -2788.1 0 1252.74 -2771.13 0 
1257.87 -2773.03 0 1294.87 -2786.78 0 2237.88 -2771.1 0 
1207 -2754.13 0 1220.87 -2759.28 0 2241.08 -2754.1 0 
1161.25 -2737.13 0 1183.87 -2745.54 0 2244.28 -2737.1 0 
1115.5 -2720.13 0 1146.87 -2731.79 0 2247.49 -2720.1 0 
1081.33 -2703.13 0 1109.87 -2718.04 0 2250.69 -2703.1 0 
1056.74 -2686.13 0 1072.87 -2697.85 0 2253.89 -2686.1 0 
1033.34 -2669.13 0 1035.87 -2670.97 0 2256.9 -2670.1 0 
2257.09 -2669.1 0 1009.95 -2652.13 0 2260.29 -2652.09 0 
986.556 -2635.13 0 998.871 -2644.08 0 2263.5 -2635.09 0 
963.162 -2618.13 0 2266.7 -2618.09 0 954.85 -2601.13 0 
961.872 -2617.19 0 2269.9 -2601.09 0 947.592 -2584.13 0 
2273.1 -2584.09 0 940.508 -2567.13 0 2276.3 -2567.09 0 
933.592 -2550.12 0 2279.51 -2550.09 0 926.837 -2533.12 0 
2282.71 -2533.09 0 920.467 -2516.12 0 924.876 -2528.11 0 
2285.91 -2516.09 0 914.215 -2499.12 0 2289.11 -2499.09 0 
907.963 -2482.12 0 2292.31 -2482.08 0 901.71 -2465.12 0 
2293.92 -2473.57 0 2295.52 -2465.08 0 895.458 -2448.12 0 
2298.72 -2448.08 0 889.206 -2431.12 0 2301.92 -2431.08 0 
882.954 -2414.12 0 887.881 -2427.52 0 2305.12 -2414.08 0 
876.702 -2397.12 0 2308.32 -2397.08 0 870.45 -2380.12 0 
2311.53 -2380.08 0 864.197 -2363.12 0 2314.73 -2363.08 0 
857.945 -2346.11 0 2317.93 -2346.08 0 851.693 -2329.11 0 
2321.13 -2329.07 0 845.441 -2312.11 0 850.886 -2326.92 0 
2324.33 -2312.07 0 839.189 -2295.11 0 2327.54 -2295.07 0 
832.937 -2278.11 0 2330.74 -2278.07 0 826.684 -2261.11 0 
2330.93 -2277.05 0 2333.94 -2261.07 0 820.432 -2244.11 0 
2338.61 -2244.07 0 814.18 -2227.11 0 2350.8 -2227.07 0 
807.928 -2210.11 0 813.891 -2226.32 0 2363.55 -2210.07 0 
801.676 -2193.11 0 2367.93 -2204.22 0 2376.3 -2193.06 0 
795.424 -2176.11 0 2389.04 -2176.06 0 789.171 -2159.11 0 
2401.79 -2159.06 0 782.919 -2142.1 0 2404.94 -2154.86 0 
2414.53 -2142.06 0 779.876 -2125.1 0 2427.28 -2125.06 0 
777.627 -2108.1 0 2440.03 -2108.06 0 775.42 -2091.1 0 
776.897 -2102.48 0 2441.94 -2105.5 0 2452.77 -2091.06 0 
773.213 -2074.1 0 2465.52 -2074.06 0 771.006 -2057.1 0 
2478.26 -2057.05 0 768.799 -2040.1 0 2478.95 -2056.14 0 
2485.4 -2040.05 0 766.592 -2023.1 0 2487.42 -2023.05 0 
764.384 -2006.1 0 2486.51 -2006.05 0 762.177 -1989.1 0 
2485.61 -1989.05 0 759.97 -1972.1 0 2484.71 -1972.05 0 
757.763 -1955.09 0 2483.81 -1955.05 0 755.556 -1938.09 0 
2482.9 -1938.05 0 753.349 -1921.09 0 2482 -1921.05 0 
751.142 -1904.09 0 2481.1 -1904.04 0 748.935 -1887.09 0 
2480.2 -1887.04 0 746.728 -1870.09 0 2479.3 -1870.04 0 
744.521 -1853.09 0 2478.96 -1863.67 0 2478.39 -1853.04 0 
742.314 -1836.09 0 2477.49 -1836.04 0 740.106 -1819.09 0 
2476.59 -1819.04 0 737.899 -1802.09 0 739.913 -1817.6 0 
2475.69 -1802.04 0 735.692 -1785.09 0 2474.78 -1785.04 0 
733.485 -1768.08 0 2473.88 -1768.04 0 729.114 -1751.08 0 
2472.98 -1751.04 0 723.712 -1734.08 0 2472.08 -1734.04 0 
719.631 -1717.08 0 2471.18 -1717.03 0 714.068 -1700.08 0 
2470.27 -1700.03 0 707.576 -1683.08 0 2469.37 -1683.03 0 
700.061 -1666.08 0 702.921 -1673.4 0 2468.47 -1666.03 0 
694.698 -1649.08 0 2467.57 -1649.03 0 -481.109 -1636.62 0 
-489.509 -1632.11 0 -444.109 -1641.76 0 -411.712 -1632.11 0 
691.317 -1632.08 0 2466.67 -1632.03 0 -518.109 -1616.75 0 
-521.174 -1615.11 0 -407.107 -1630.73 0 -370.105 -1619.71 0 
-354.648 -1615.1 0 687.685 -1615.08 0 2465.76 -1615.03 0 
-552.838 -1598.11 0 -333.104 -1608.69 0 -297.584 -1598.1 0 
684.052 -1598.08 0 2465.07 -1598.03 0 -555.109 -1596.89 0 
-584.503 -1581.11 0 -296.102 -1597.66 0 -259.1 -1586.64 0 
-240.52 -1581.1 0 680.42 -1581.07 0 2465.45 -1581.03 0 
-592.109 -1577.03 0 -616.167 -1564.11 0 -222.099 -1575.61 0 
-185.097 -1564.56 0 -183.668 -1564.1 0 676.788 -1564.07 0 
2466.41 -1564.03 0 -629.109 -1557.16 0 -647.831 -1547.11 0 
-148.095 -1552.79 0 -130.467 -1547.09 0 673.156 -1547.07 0 
2467.37 -1547.02 0 -666.108 -1537.3 0 -679.496 -1530.11 0 
-111.094 -1540.83 0 -77.8579 -1530.09 0 669.523 -1530.07 0 
2468.33 -1530.02 0 -703.108 -1517.43 0 -711.16 -1513.11 0 
-74.0919 -1528.88 0 -58.2085 -1513.09 0 665.891 -1513.07 0 
665.929 -1513.25 0 2469.29 -1513.02 0 -740.108 -1497.57 0 
-742.206 -1496.11 0 -40.0041 -1496.09 0 662.259 -1496.07 0 
2470.25 -1496.02 0 -761.314 -1479.11 0 -37.0888 -1493.11 0 
-29.6242 -1479.09 0 658.627 -1479.07 0 2471.21 -1479.02 0 
-773.561 -1462.11 0 -18.958 -1462.09 0 654.995 -1462.07 0 
2472.17 -1462.02 0 -777.107 -1456.9 0 -785.13 -1445.11 0 
-7.69578 -1445.09 0 651.362 -1445.07 0 2473.13 -1445.02 0 
-796.7 -1428.11 0 -0.084392 -1434.75 0 4.82377 -1428.08 0 
647.73 -1428.07 0 1402.49 -1428.05 0 1405.95 -1428.13 0 
1442.95 -1428.99 0 1479.96 -1429.86 0 1516.96 -1430.72 0 
1527.74 -1428.04 0 2474.09 -1428.02 0 -808.27 -1411.1 0 
17.3433 -1411.08 0 644.098 -1411.07 0 1327.67 -1411.05 0 
1331.95 -1412.86 0 1368.95 -1427.21 0 1553.96 -1418.55 0 
1562.34 -1411.04 0 2475.05 -1411.02 0 -814.104 -1402.53 0 
-819.84 -1394.1 0 29.8628 -1394.08 0 640.466 -1394.06 0 
1287.49 -1394.05 0 1294.95 -1397.21 0 1581.32 -1394.04 0 
2476.01 -1394.02 0 -831.41 -1377.1 0 36.9196 -1384.5 0 
42.3825 -1377.08 0 636.833 -1377.06 0 1247.31 -1377.05 0 
1257.95 -1381.55 0 1590.96 -1385.4 0 1600.29 -1377.04 0 
2476.97 -1377.01 0 -842.98 -1360.1 0 54.902 -1360.08 0 
633.201 -1360.06 0 1215.25 -1360.05 0 1220.95 -1365.9 0 
1619.26 -1360.04 0 2477.93 -1360.01 0 -851.102 -1348.17 0 
-854.549 -1343.1 0 67.4215 -1343.08 0 629.569 -1343.06 0 
1196.5 -1343.05 0 1627.96 -1352.24 0 1638.24 -1343.03 0 
2478.89 -1343.01 0 -866.119 -1326.1 0 73.9235 -1334.25 0 
79.9411 -1326.08 0 625.937 -1326.06 0 628.938 -1340.11 0 
1176.79 -1326.05 0 1183.95 -1333.28 0 1657.21 -1326.03 0 
2478.99 -1341.19 0 2479.81 -1326.01 0 -877.689 -1309.1 0 
92.4607 -1309.07 0 620.337 -1309.06 0 1157.92 -1309.05 0 
1664.97 -1319.08 0 1676.18 -1309.03 0 2480.49 -1309.01 0 
-888.1 -1293.8 0 -889.259 -1292.1 0 104.98 -1292.07 0 
610.69 -1292.06 0 1134.77 -1292.05 0 1146.95 -1300.38 0 
1695.16 -1292.03 0 2481 -1292.01 0 -900.829 -1275.1 0 
110.927 -1284 0 117.5 -1275.07 0 601.044 -1275.06 0 
1109.91 -1275.05 0 1109.95 -1275.08 0 1701.97 -1285.92 0 
1712.17 -1275.03 0 2479.06 -1275.01 0 -912.399 -1258.1 0 
130.019 -1258.07 0 591.499 -1258.06 0 591.942 -1259.02 0 
1085.05 -1258.04 0 1726.44 -1258.03 0 2478.99 -1274.67 0 
2474.91 -1258.01 0 -923.969 -1241.1 0 142.539 -1241.07 0 
584.633 -1241.06 0 1060.2 -1241.04 0 1072.96 -1249.77 0 
1738.97 -1243.71 0 1740.86 -1241.03 0 2471.72 -1241.01 0 
-925.098 -1239.44 0 -935.538 -1224.1 0 147.931 -1233.75 0 
152.241 -1224.07 0 580.713 -1224.06 0 1035.34 -1224.04 0 
1035.96 -1224.47 0 1752.81 -1224.02 0 2468.17 -1224.01 0 
-947.108 -1207.1 0 156.153 -1207.07 0 576.793 -1207.06 0 
1010.48 -1207.04 0 1764.83 -1207.02 0 2464.53 -1207 0 
-958.678 -1190.1 0 158.112 -1190.07 0 572.873 -1190.05 0 
991.144 -1190.04 0 998.956 -1199.16 0 1775.98 -1191.06 0 
1776.7 -1190.02 0 2461.7 -1190 0 -962.096 -1185.07 0 
-970.248 -1173.1 0 160.072 -1173.06 0 568.953 -1173.05 0 
976.521 -1173.04 0 1788.65 -1173.02 0 2460.02 -1173 0 
-981.818 -1156.09 0 162.031 -1156.06 0 565.033 -1156.05 0 
961.852 -1156.04 0 961.958 -1156.2 0 1800.6 -1156.02 0 
2459.85 -1156 0 -993.388 -1139.09 0 163.991 -1139.06 0 
561.113 -1139.05 0 950.745 -1139.04 0 1812.55 -1139.02 0 
2459.68 -1139 0 -999.094 -1130.7 0 -1004.95 -1122.09 0 
165.95 -1122.06 0 557.193 -1122.05 0 940.433 -1122.04 0 
1812.98 -1138.4 0 1824.49 -1122.02 0 2459.54 -1122 0 
-1022.9 -1105.09 0 167.91 -1105.06 0 553.259 -1105.05 0 
554.95 -1112.32 0 930.891 -1105.04 0 1836.44 -1105.02 0 
2459.43 -1105 0 -1032.12 -1088.09 0 169.869 -1088.06 0 
549.308 -1088.05 0 921.737 -1088.04 0 924.961 -1094.03 0 
1848.39 -1088.01 0 2459.32 -1088 0 -1035.44 -1071.09 0 
171.939 -1071.06 0 545.363 -1071.05 0 912.583 -1071.04 0 
1849.99 -1085.74 0 1859.1 -1071.01 0 2459.21 -1071 0 
-1036.09 -1066.48 0 -1038.1 -1054.09 0 178.771 -1054.06 0 
541.423 -1054.05 0 899.886 -1054.04 0 1868.24 -1054.01 0 
2459.1 -1054 0 -1040.64 -1037.09 0 184.944 -1038.77 0 
185.634 -1037.06 0 537.488 -1037.05 0 885.172 -1037.04 0 
887.963 -1040.26 0 1876.2 -1037.01 0 2458.99 -1036.99 0 
-1042.95 -1020.09 0 192.498 -1020.05 0 533.559 -1020.05 0 
870.458 -1020.04 0 1882.96 -1020.01 0 2458.89 -1019.99 0 
-1045.07 -1003.09 0 199.361 -1003.05 0 529.634 -1003.04 0 
855.744 -1003.04 0 1886.99 -1009.76 0 1889.65 -1003.01 0 
2458.78 -1002.99 0 -1047.01 -986.086 0 206.224 -986.052 0 
525.714 -986.044 0 841.03 -986.035 0 850.964 -997.513 0 
1896.34 -986.007 0 2458.68 -985.992 0 -1048.89 -969.085 0 
213.088 -969.051 0 521.617 -969.043 0 826.316 -969.035 0 
1903.03 -969.006 0 2458.62 -968.991 0 -1051.13 -952.084 0 
219.951 -952.05 0 516.322 -952.042 0 517.958 -957.516 0 
811.687 -952.034 0 813.966 -954.765 0 1910.08 -952.004 0 
2457.53 -951.99 0 -1053.36 -935.083 0 221.95 -947.098 0 
224.758 -935.049 0 510.8 -935.041 0 798.212 -935.033 0 
1918.64 -935.003 0 2455.3 -934.989 0 -1055.6 -918.083 0 
226.278 -918.048 0 505.471 -918.04 0 785.852 -918.033 0 
1924 -924.566 0 1927.36 -918.002 0 2452.83 -917.988 0 
-1057.83 -901.082 0 225.741 -901.047 0 499.922 -901.039 0 
774.727 -901.032 0 776.968 -904.876 0 1936.09 -901.001 0 
2450.35 -900.987 0 -1060.07 -884.081 0 225.205 -884.046 0 
[...]
POINT_DATA 7384
SCALARS Pressure double
LOOKUP_TABLE default
3.0932710339 3.0932710339 3.0932710339 3.0932710339 3.0932710339 3.0932710339 3.0932710339 3.0932710339 3.0932710339 
3.0932710339 3.0932710339 3.0932710339 3.0932710339 3.0932710339 3.0932710339 3.0932710339 3.0932710339 3.0932710339 
3.0932710339 3.0932710339 3.0932710339 3.0932710339 3.0932710339 3.0932710339 3.0932710339 3.0932710339 3.0932710339 
3.0932710339 3.0932710339 3.0932710339 3.0932710339 3.0932710339 3.0932710339 3.0932710339 3.0932710339 3.0932710339 
3.0932710339 3.0932710339 3.0932710339 3.0932710339 3.0932710339 3.0932710339 3.0932710339 3.0932710339 3.0932710339 
3.0932710339 3.0932710339 3.0932710339 3.0932710339 3.0932710339 3.0932710339 3.0932710339 3.0932710339 3.0932710339 
3.0932710339 3.0932710339 3.0932710339 3.0932710339 3.0932710339 3.0932710339 3.0932710339 3.0932710339 3.0932710339 
3.0932710339 3.0932710339 3.0932710339 3.0932710339 3.0932710339 3.0932710339 3.0932710339 3.0932710339 3.0932710339 
3.0932710339 3.0932710339 3.0932710339 3.0932710339 3.0932710339 3.0932710339 3.0932710339 3.0932710339 3.0932710339 
3.0932710339 3.0932710339 3.0932710339 3.0932710339 3.0932710339 3.0932710339 3.0932710339 3.0932710339 3.0932710339 
3.0932710339 3.0932710339 3.0932710339 3.0932710339 3.0932710339 3.0932710339 3.0932710339 3.0932710339 3.0932710339 
3.0932710339 3.0932710339 3.0932710339 3.0932710339 3.0932710339 3.0932710339 3.0932710339 3.0932710339 3.0932710339 
3.0932710339 3.0932710339 3.0932710339 3.0932710339 3.0932710339 3.0932710339 3.0932710339 3.0932710339 3.0932710339 
3.0932710339 3.0932710339 3.0932710339 3.0932710339 3.0932710339 3.0932710339 3.0932710339 3.0932710339 3.0932710339 
3.0932710339 3.0932710339 3.0932710339 3.0932710339 3.0932710339 3.0932710339 3.0932710339 3.0932710339 3.0932710339 
3.0932710339 3.0932710339 3.0932710339 3.0932710339 3.0932710339 3.0932710339 3.0932710339 3.0932710339 3.0932710339 
3.0932710339 3.0932710339 3.0932710339 3.0932710339 3.0932710339 3.0932710339 3.0932710339 3.0932710339 3.0932710339 
3.0932710339 3.0932710339 3.0932710339 3.0932710339 3.0932710339 3.0932710339 3.0932710339 3.0932710339 3.0932710339 
3.0932710339 3.0932710339 3.0932710339 3.0932710339 3.0932710339 3.0932710339 3.0932710339 3.0932710339 3.0932710339 
3.0932710339 3.0932710339 3.0932710339 3.0932710339 3.0932710339 3.0932710339 3.0932710339 3.0932710339 3.0932710339 
3.0932710339 3.0932710339 3.0932710339 3.0932710339 3.0932710339 3.0932710339 3.0932710339 3.0932710339 3.0932710339 
3.0932710339 3.0932710339 3.0932710339 3.0932710339 3.0932710339 3.0932710339 3.0932710339 3.0932710339 3.0932710339 
3.0932710339 3.0932710339 3.0786768432 3.0786768432 3.0786768432 3.0786768432 3.0932710339 3.0932710339 3.0786768432 
3.0786768432 3.0786768432 3.0786768432 3.0786768432 3.0932710339 3.0932710339 3.0786768432 3.0786768432 3.0786768432 
3.0932710339 3.0932710339 3.0786768432 3.0786768432 3.0786768432 3.0786768432 3.0786768432 3.0932710339 3.0932710339 
3.0786768432 3.0786768432 3.0786768432 3.0786768432 3.0786768432 3.0932710339 3.0932710339 3.0786768432 3.0786768432 
3.0786768432 3.0786768432 3.0932710339 3.0932710339 3.0786768432 3.0786768432 3.0786768432 3.0786768432 3.0932710339 
3.0932710339 3.0786768432 3.0786768432 3.0786768432 3.0786768432 3.0932710339 3.0932710339 3.0932710339 3.0786768432 
3.0786768432 3.0786768432 3.0932710339 3.0932710339 3.0786768432 3.0786768432 3.0786768432 3.0932710339 3.0932710339 
3.0786768432 3.0786768432 3.0932710339 3.0932710339 3.0786768432 3.0786768432 3.0786768432 3.0932710339 3.0932710339 
3.0786768432 3.0786768432 3.0786768432 3.0932710339 3.1078652246 3.1078652246 3.1078652246 3.1078652246 3.1078652246 
3.1078652246 3.0932710339 3.0786768432 3.0786768432 3.0932710339 3.1078652246 3.1078652246 3.1078652246 3.1078652246 
3.1078652246 3.0932710339 3.0786768432 3.0786768432 3.0786768432 3.0932710339 3.1078652246 3.1078652246 3.1078652246 
3.0932710339 3.0786768432 3.0786768432 3.0786768432 3.0932710339 3.1078652246 3.1078652246 3.1078652246 3.1078652246 
3.0932710339 3.0786768432 3.0786768432 3.0932710339 3.1078652246 3.1078652246 3.1078652246 3.0932710339 3.0786768432 
3.0786768432 3.0786768432 3.0932710339 3.1078652246 3.1078652246 3.1078652246 3.0932710339 3.0786768432 3.0786768432 
3.0786768432 3.0932710339 3.0932710339 3.1078652246 3.1078652246 3.1078652246 3.0932710339 3.0932710339 3.0786768432 
3.0786768432 3.0932710339 3.1078652246 3.1078652246 3.1078652246 3.0932710339 3.0786768432 3.0786768432 3.0786768432 
3.0932710339 3.1078652246 3.1078652246 3.1078652246 3.0932710339 3.0786768432 3.0786768432 3.0786768432 3.0932710339 
3.1078652246 3.1078652246 3.1078652246 3.1078652246 3.0932710339 3.0786768432 3.0786768432 3.0932710339 3.0932710339 
3.1078652246 3.1078652246 3.0932710339 3.0932710339 3.0786768432 3.0786768432 3.0932710339 3.1078652246 3.1078652246 
3.1078652246 3.1078652246 3.0932710339 3.0786768432 3.0786768432 3.0786768432 3.0786768432 3.0932710339 3.1078652246 
3.1078652246 3.1078652246 3.0932710339 3.0786768432 3.0786768432 3.0932710339 3.1078652246 3.1078652246 3.0932710339 
3.0786768432 3.0786768432 3.0932710339 3.1078652246 3.1078652246 3.1078652246 3.1078652246 3.0932710339 3.0786768432 
3.0786768432 3.0786768432 3.0932710339 3.1078652246 3.1078652246 3.0932710339 3.0786768432 3.0786768432 3.0932710339 
3.1078652246 3.1078652246 3.1078652246 3.0932710339 3.0786768432 3.0786768432 3.0932710339 3.1078652246 3.1078652246 
3.0932710339 3.0786768432 3.0786768432 3.0786768432 3.0932710339 3.1078652246 3.1078652246 3.1078652246 3.0932710339 
3.0786768432 3.0786768432 3.0932710339 3.0932710339 3.1078652246 3.1078652246 3.0932710339 3.0786768432 3.0786768432 
3.0932710339 3.1078652246 3.1078652246 3.1078652246 3.0932710339 3.0786768432 3.0786768432 3.0932710339 3.1078652246 
3.1078652246 3.1078652246 3.0932710339 3.0786768432 3.0786768432 3.0786768432 3.0932710339 3.1078652246 3.1078652246 
3.0932710339 3.0786768432 3.0786768432 3.0786768432 3.0932710339 3.1078652246 3.1078652246 3.1078652246 3.0932710339 
3.0786768432 3.0786768432 3.0932710339 3.1078652246 3.1078652246 3.0932710339 3.0786768432 3.0786768432 3.0932710339 
3.1078652246 3.1078652246 3.1078652246 3.0932710339 3.0786768432 3.0786768432 3.0932710339 3.1078652246 3.1078652246 
3.1078652246 3.0932710339 3.0786768432 3.0786768432 3.0932710339 3.1078652246 3.1078652246 3.0932710339 3.0786768432 
3.0786768432 3.0932710339 3.0932710339 3.1078652246 3.1078652246 3.1078652246 3.0932710339 3.0786768432 3.0786768432 
3.0786768432 3.0932710339 3.1078652246 3.1078652246 3.0932710339 3.0786768432 3.0786768432 3.0932710339 3.1078652246 
3.1078652246 3.1078652246 3.0932710339 3.0786768432 3.0786768432 3.0932710339 3.1078652246 3.1078652246 3.1078652246 
3.0932710339 3.0786768432 3.0786768432 3.0932710339 3.1078652246 3.1078652246 3.0932710339 3.0786768432 3.0786768432 
3.0932710339 3.1078652246 3.1078652246 3.0932710339 3.0786768432 3.0786768432 3.0932710339 3.1078652246 3.1078652246 
3.0932710339 3.0786768432 3.0786768432 3.0932710339 3.0932710339 3.1078652246 3.1078652246 3.1078652246 3.1078652246 
3.0932710339 3.0932710339 3.0786768432 3.0786768432 3.0932710339 3.1078652246 3.1078652246 3.0932710339 3.0786768432 
3.0786768432 3.0932710339 3.1078652246 3.1224594153 3.1224594153 3.1224594153 3.1224594153 3.1224594153 3.1224594153 
3.1224594153 3.1078652246 3.0932710339 3.0786768432 3.0786768432 3.0786768432 3.0786768432 3.0786768432 3.0786768432 
3.0786768432 3.0932710339 3.1078652246 3.1224594153 3.1224594153 3.1224594153 3.1224594153 3.1224594153 3.1224594153 
3.1078652246 3.0932710339 3.0786768432 3.0786768432 3.0786768432 3.0786768432 3.0786768432 3.0786768432 3.0786768432 
3.0932710339 3.1078652246 3.1078652246 3.1224594153 3.1224594153 3.1224594153 3.1078652246 3.0932710339 3.0932710339 
3.0786768432 3.0786768432 3.0786768432 3.0786768432 3.0640826525 3.0640826525 3.0640826525 3.0640826525 3.0640826525 
3.0640826525 3.0640826525 3.0786768432 3.0932710339 3.1078652246 3.1224594153 3.1224594153 3.1224594153 3.1078652246 
3.0932710339 3.0786768432 3.0786768432 3.0786768432 3.0786768432 3.0786768432 3.0786768432 3.0640826525 3.0640826525 
3.0640826525 3.0640826525 3.0786768432 3.0932710339 3.1078652246 3.1224594153 3.1224594153 3.1224594153 3.1224594153 
3.1078652246 3.1078652246 3.0932710339 3.0786768432 3.0786768432 3.0786768432 3.0786768432 3.0786768432 3.0640826525 
3.0640826525 3.0640826525 3.0786768432 3.0932710339 3.1078652246 3.1078652246 3.1224594153 3.1224594153 3.1224594153 
3.1078652246 3.0932710339 3.0786768432 3.0786768432 3.0786768432 3.0786768432 3.0786768432 3.0640826525 3.0640826525 
3.0640826525 3.0640826525 3.0786768432 3.0932710339 3.1078652246 3.1224594153 3.1224594153 3.1224594153 3.1078652246 
3.0932710339 3.0786768432 3.0786768432 3.0786768432 3.0786768432 3.0640826525 3.0640826525 3.0786768432 3.0932710339 
3.1078652246 3.1224594153 3.1224594153 3.1224594153 3.1078652246 3.0932710339 3.0786768432 3.0786768432 3.0786768432 
3.0786768432 3.0640826525 3.0640826525 3.0640826525 3.0640826525 3.0786768432 3.0932710339 3.0932710339 3.1078652246 
3.1224594153 3.1224594153 3.1224594153 3.1078652246 3.0932710339 3.0786768432 3.0786768432 3.0786768432 3.0786768432 
3.0786768432 3.0640826525 3.0640826525 3.0786768432 3.0932710339 3.1078652246 3.1078652246 3.1224594153 3.1224594153 
3.1224594153 3.1078652246 3.0932710339 3.0786768432 3.0786768432 3.0786768432 3.0640826525 3.0640826525 3.0640826525 
3.0786768432 3.0932710339 3.1078652246 3.1224594153 3.1224594153 3.1224594153 3.1078652246 3.0932710339 3.0786768432 
3.0786768432 3.0786768432 3.0786768432 3.0640826525 3.0640826525 3.0640826525 3.0786768432 3.0932710339 3.1078652246 
3.1224594153 3.1224594153 3.1224594153 3.1078652246 3.1078652246 3.0932710339 3.0786768432 3.0786768432 3.0786768432 
3.0640826525 3.0640826525 3.0640826525 3.0786768432 3.0932710339 3.1078652246 3.1224594153 3.1224594153 3.1078652246 
3.0932710339 3.0786768432 3.0786768432 3.0786768432 3.0786768432 3.0640826525 3.0640826525 3.0640826525 3.0786768432 
3.0932710339 3.1078652246 3.1224594153 3.1224594153 3.1224594153 3.1224594153 3.1078652246 3.0932710339 3.0786768432 
3.0786768432 3.0786768432 3.0786768432 3.0786768432 3.0640826525 3.0640826525 3.0786768432 3.0932710339 3.0932710339 
3.1078652246 3.1078652246 3.1224594153 3.1224594153 3.1078652246 3.0932710339 3.0786768432 3.0786768432 3.0786768432 
3.0640826525 3.0640826525 3.0786768432 3.0932710339 3.1078652246 3.1224594153 3.1224594153 3.1224594153 3.1078652246 
3.0932710339 3.0786768432 3.0786768432 3.0786768432 3.0640826525 3.0640826525 3.0786768432 3.0932710339 3.1078652246 
3.1224594153 3.1224594153 3.1078652246 3.0932710339 3.0786768432 3.0786768432 3.0786768432 3.0640826525 3.0640826525 
3.0786768432 3.0932710339 3.1078652246 3.1078652246 3.1224594153 3.1224594153 3.1224594153 3.1224594153 3.1078652246 
3.0932710339 3.0932710339 3.0786768432 3.0786768432 3.0786768432 3.0786768432 3.0640826525 3.0640826525 3.0640826525 
3.0640826525 3.0786768432 3.0932710339 3.1078652246 3.1224594153 3.1224594153 3.1078652246 3.0932710339 3.0786768432 
3.0786768432 3.0786768432 3.0786768432 3.0640826525 3.0640826525 3.0786768432 3.0932710339 3.1078652246 3.1224594153 
3.1224594153 3.1078652246 3.0932710339 3.0786768432 3.0786768432 3.0786768432 3.0640826525 3.0640826525 3.0786768432 
3.0932710339 3.1078652246 3.1078652246 3.1224594153 3.1224594153 3.1224594153 3.1078652246 3.0932710339 3.0786768432 
3.0786768432 3.0786768432 3.0786768432 3.0640826525 3.0494884618 3.0494884618 3.0494884618 3.0640826525 3.0786768432 
3.0932710339 3.1078652246 3.1224594153 3.137053606 3.137053606 3.137053606 3.137053606 3.1224594153 3.1078652246 
3.0932710339 3.0786768432 3.0786768432 3.0786768432 3.0640826525 3.0494884618 3.0494884618 3.0494884618 3.0494884618 
3.0494884618 3.0640826525 3.0786768432 3.0932710339 3.0932710339 3.1078652246 3.1224594153 3.1224594153 3.137053606 
3.137053606 3.137053606 3.137053606 3.1224594153 3.1224594153 3.1078652246 3.0932710339 3.0786768432 3.0786768432 
3.0786768432 3.0640826525 3.0640826525 3.0494884618 3.0494884618 3.0494884618 3.0640826525 3.0786768432 3.0932710339 
3.1078652246 3.1224594153 3.137053606 3.137053606 3.137053606 3.137053606 3.1224594153 3.1078652246 3.1078652246 
3.0932710339 3.0786768432 3.0786768432 3.0786768432 3.0786768432 3.0640826525 3.0494884618 3.0494884618 3.0494884618 
3.0494884618 3.0640826525 3.0786768432 3.0932710339 3.1078652246 3.1078652246 3.1224594153 3.137053606 3.137053606 
3.137053606 3.1224594153 3.1078652246 3.0932710339 3.0786768432 3.0786768432 3.0786768432 3.0786768432 3.0640826525 
3.0494884618 3.0494884618 3.0640826525 3.0786768432 3.0932710339 3.1078652246 3.1224594153 3.1224594153 3.137053606 
3.137053606 3.1224594153 3.1078652246 3.0932710339 3.0786768432 3.0786768432 3.0786768432 3.0640826525 3.0494884618 
3.0494884618 3.0494884618 3.0640826525 3.0786768432 3.0932710339 3.0932710339 3.1078652246 3.1224594153 3.137053606 
3.137053606 3.137053606 3.1224594153 3.1078652246 3.0932710339 3.0786768432 3.0786768432 3.0786768432 3.0640826525 
3.0494884618 3.0494884618 3.0494884618 3.0640826525 3.0786768432 3.0932710339 3.1078652246 3.1078652246 3.1224594153 
3.137053606 3.137053606 3.137053606 3.1224594153 3.1078652246 3.0932710339 3.0786768432 3.0786768432 3.0786768432 
3.0786768432 3.0640826525 3.0494884618 3.0494884618 3.0494884618 3.0640826525 3.0786768432 3.0932710339 3.1078652246 
3.1224594153 3.137053606 3.137053606 3.1224594153 3.1078652246 3.1078652246 3.0932710339 3.0786768432 3.0786768432 
3.0786768432 3.0786768432 3.0640826525 3.0494884618 3.0494884618 3.0640826525 3.0786768432 3.0932710339 3.1078652246 
3.1224594153 3.1224594153 3.137053606 3.137053606 3.1224594153 3.1078652246 3.0932710339 3.0932710339 3.0786768432 
3.0786768432 3.0786768432 3.0786768432 3.0640826525 3.0494884618 3.0494884618 3.0494884618 3.0640826525 3.0786768432 
3.0932710339 3.1078652246 3.1224594153 3.137053606 3.137053606 3.137053606 3.1224594153 3.1078652246 3.0932710339 
3.0786768432 3.0786768432 3.0786768432 3.0786768432 3.0786768432 3.0640826525 3.0640826525 3.0494884618 3.0494884618 
3.0640826525 3.0786768432 3.0932710339 3.1078652246 3.1078652246 3.1224594153 3.137053606 3.137053606 3.1224594153 
3.1078652246 3.0932710339 3.0786768432 3.0786768432 3.0786768432 3.0640826525 3.0494884618 3.0348942711 3.0348942711 
3.0348942711 3.0348942711 3.0494884618 3.0640826525 3.0786768432 3.0786768432 3.0932710339 3.0932710339 3.1078652246 
3.1224594153 3.137053606 3.137053606 3.137053606 3.1224594153 3.1078652246 3.0932710339 3.0786768432 3.0640826525 
3.0640826525 3.0640826525 3.0640826525 3.0786768432 3.0786768432 3.0786768432 3.0640826525 3.0494884618 3.0348942711 
3.0348942711 3.0348942711 3.0348942711 3.0494884618 3.0494884618 3.0640826525 3.0786768432 3.0932710339 3.1078652246 
3.1224594153 3.1224594153 3.137053606 3.137053606 3.137053606 3.1224594153 3.1078652246 3.0932710339 3.0786768432 
3.0640826525 3.0640826525 3.0640826525 3.0640826525 3.0786768432 3.0786768432 3.0786768432 3.0786768432 3.0640826525 
3.0494884618 3.0348942711 3.0348942711 3.0348942711 3.0348942711 3.0494884618 3.0640826525 3.0640826525 3.0786768432 
3.0932710339 3.1078652246 3.1224594153 3.137053606 3.137053606 3.1224594153 3.1078652246 3.0932710339 3.0786768432 
3.0786768432 3.0640826525 3.0640826525 3.0640826525 3.0786768432 3.0786768432 3.0786768432 3.0786768432 3.0640826525 
3.0494884618 3.0348942711 3.0348942711 3.0494884618 3.0640826525 3.0786768432 3.0932710339 3.1078652246 3.1224594153 
3.137053606 3.137053606 3.137053606 3.1224594153 3.1078652246 3.0932710339 3.0786768432 3.0640826525 3.0640826525 
3.0640826525 3.0640826525 3.0786768432 3.0786768432 3.0786768432 3.0786768432 3.0640826525 3.0494884618 3.0348942711 
3.0348942711 3.0494884618 3.0640826525 3.0640826525 3.0786768432 3.0932710339 3.1078652246 3.1078652246 3.1224594153 
3.137053606 3.137053606 3.137053606 3.1224594153 3.1078652246 3.0932710339 3.0786768432 3.0640826525 3.0640826525 
3.0640826525 3.0786768432 3.0786768432 3.0786768432 3.0640826525 3.0494884618 3.0494884618 3.0348942711 3.0348942711 
3.0203000804 3.0203000804 3.0203000804 3.0203000804 3.0348942711 3.0348942711 3.0494884618 3.0640826525 3.0786768432 
3.0932710339 3.1078652246 3.1224594153 2.9473291268 2.9473291268 2.9619233175 2.9619233175 2.9765175082 2.9765175082 
2.991111699 2.991111699 3.0057058897 3.0057058897 3.0203000804 3.0203000804 3.0348942711 3.0348942711 3.0494884618 
3.0494884618 3.0640826525 3.0640826525 3.0786768432 3.0786768432 3.0932710339 3.0932710339 3.1078652246 3.1078652246 
3.1224594153 3.1224594153 2.9473291268 2.9619233175 2.9765175082 2.991111699 3.0057058897 3.0203000804 3.0348942711 
3.0494884618 3.0640826525 3.0786768432 3.0932710339 3.1078652246 3.1224594153 3.137053606 2.9473291268 2.9619233175 
2.9765175082 2.991111699 3.0057058897 3.0203000804 3.0348942711 3.0494884618 3.0640826525 3.0786768432 3.0932710339 
3.1078652246 3.1224594153 3.137053606 2.9473291268 2.9619233175 2.9765175082 2.991111699 3.0057058897 3.0203000804 
3.0348942711 3.0494884618 3.0640826525 3.0786768432 3.0932710339 3.1078652246 3.1224594153 3.137053606 2.9473291268 
2.9619233175 2.9765175082 2.991111699 3.0057058897 3.0203000804 3.0348942711 3.0494884618 3.0640826525 3.0786768432 
3.0932710339 3.1078652246 3.1224594153 3.137053606 2.9473291268 2.9619233175 2.9765175082 2.991111699 3.0057058897 
3.0203000804 3.0348942711 3.0494884618 3.0640826525 3.0786768432 3.0932710339 3.1078652246 3.1224594153 3.137053606 
2.9473291268 2.9619233175 2.9765175082 2.991111699 3.0057058897 3.0203000804 3.0348942711 3.0494884618 3.0640826525 
3.0786768432 3.0932710339 3.1078652246 3.1224594153 3.137053606 2.9473291268 2.9619233175 2.9765175082 2.991111699 
3.0057058897 3.0203000804 3.0348942711 3.0494884618 3.0640826525 3.0786768432 3.0932710339 3.1078652246 3.1224594153 
3.137053606 2.9473291268 2.9619233175 2.9765175082 2.991111699 3.0057058897 3.0203000804 3.0348942711 3.0494884618 
3.0640826525 3.0786768432 3.0932710339 3.1078652246 3.1224594153 3.137053606 2.9473291268 2.9619233175 2.9765175082 
2.991111699 3.0057058897 3.0203000804 3.0348942711 3.0494884618 3.0640826525 3.0786768432 3.0932710339 3.1078652246 
3.1224594153 3.137053606 3.137053606 3.1224594153 3.1078652246 3.0932710339 3.0786768432 3.0640826525 3.0640826525 
3.0786768432 3.0786768432 3.0786768432 3.0640826525 3.0494884618 3.0348942711 3.0203000804 3.0203000804 3.0203000804 
3.0348942711 3.0494884618 3.0640826525 3.0786768432 3.0932710339 3.1078652246 2.9473291268 2.9473291268 2.9619233175 
2.9619233175 2.9765175082 2.9765175082 2.991111699 2.991111699 3.0057058897 3.0057058897 3.0203000804 3.0203000804 
3.0348942711 3.0348942711 3.0494884618 3.0494884618 3.0640826525 3.0640826525 3.0786768432 3.0786768432 3.0932710339 
3.0932710339 3.1078652246 3.1078652246 2.9473291268 2.9619233175 2.9765175082 2.991111699 3.0057058897 3.0203000804 
3.0348942711 3.0494884618 3.0640826525 3.0786768432 3.0932710339 3.1078652246 2.9473291268 2.9619233175 2.9765175082 
2.991111699 3.0057058897 3.0203000804 3.0348942711 3.0494884618 3.0640826525 3.0786768432 3.0932710339 3.1078652246 
2.9473291268 2.9619233175 2.9765175082 2.991111699 3.0057058897 3.0203000804 3.0348942711 3.0494884618 3.0640826525 
3.0786768432 3.0932710339 3.1078652246 3.1224594153 2.9473291268 2.9619233175 2.9765175082 2.991111699 3.0057058897 
3.0203000804 3.0348942711 3.0494884618 3.0640826525 3.0786768432 3.0932710339 3.1078652246 3.1224594153 2.9473291268 
2.9619233175 2.9765175082 2.991111699 3.0057058897 3.0203000804 3.0348942711 3.0494884618 3.0640826525 3.0786768432 
3.0932710339 3.1078652246 3.1224594153 2.9473291268 2.9619233175 2.9765175082 2.991111699 3.0057058897 3.0203000804 
3.0348942711 3.0494884618 3.0640826525 3.0786768432 3.0932710339 3.1078652246 3.1224594153 2.9473291268 2.9619233175 