# vtk DataFile Version 4.2
vtk output
ASCII
DATASET UNSTRUCTURED_GRID
POINTS 1740 double
2144.07 -94.44003 0 2911 0 0 16.54298 -37.82236 0 
5.09149 -21.30132 0 1.27433 -10.75385 0 0 0 0 
2.54575 15.14293 0 6.36291 23.76126 0 14.00014 34.89063 0 
30.50239 50.70793 0 33.39435 -52.93479 0 2050.91 -103.7862 0 
60.1465 -69.72165 0 88.83633 -83.2817 0 118.7656 -94.71113 0 
153.4168 -105.7022 0 199.5806 -117.771 0 261.4466 -130.7139 0 
345.846 -144.1892 0 460.3522 -157.0592 0 608.4185 -167.1903 0 
783.2313 -172.4016 0 941.0559 -172.4533 0 1063.409 -170.1096 0 
1164.153 -166.8746 0 1263.449 -162.682 0 1375.468 -156.8941 0 
1513.293 -148.414 0 1665.281 -137.5317 0 1791.864 -127.3721 0 
2195.451 -89.09491 0 2273.924 -80.67077 0 2383.731 -68.3513 0 
2517.64 -52.47337 0 2649.227 -35.9232 0 2740.773 -23.82991 0 
2804.387 -15.13419 0 2848.802 -8.916218 0 2881.944 -4.196067 0 
56.61447 67.79801 0 84.09687 81.25172 0 112.4783 92.48395 0 
142.1748 102.3504 0 174.8563 111.6168 0 213.124 120.8806 0 
260.3759 130.5151 0 324.6539 141.1779 0 418.1422 152.9178 0 
535.6656 162.9871 0 690.9154 170.4255 0 902.6513 172.7852 0 
1100.32 169.0517 0 1270.99 162.3262 0 1462.794 151.6837 0 
1631.287 140.0952 0 1747.993 131 0 1922.788 115.9027 0 
2069.56 101.951 0 2128.804 96.0021 0 2297.147 78.11721 0 
2414.379 64.80104 0 2554.023 47.99319 0 2673.693 32.73885 0 
2757.97 21.50315 0 2814.297 13.7575 0 2852.02 8.460961 0 
2882.272 4.148909 0 1791.052 127.4402 0 1366.894 157.3738 0 
1444.38 -152.8302 0 1547.039 146.1296 0 1589.287 -143.1614 0 
1878.731 119.8675 0 1997.072 108.9828 0 1185.654 166.0472 0 
1882.536 -119.5292 0 1971.323 -111.4145 0 1684.777 136.0292 0 
2099.317 -98.9855 0 2234.809 84.9091 0 2181.695 90.53914 0 
1728.573 -132.5703 0 1718.815 133.3509 0 1834.825 123.7132 0 
1960.305 112.4444 0 2033.69 105.4648 0 2099.184 98.99892 0 
2214.291 -73.366950643 396.8421 2955.512 15.785288655 396.8421 158.0786 -25.644156587 396.8421 
147.0109 -9.7996820386 396.8421 143.3217 0.33717755962 396.8421 142.09 10.688342935 396.8421 
144.5505 25.290612363 396.8421 148.2398 33.615518678 396.8421 155.621 44.382204685 396.8421 
171.5701 59.717385919 396.8421 174.3652 -40.09888759 396.8421 2124.254 -82.330028555 396.8421 
200.2206 -56.106788067 396.8421 227.9488 -68.995583544 396.8421 256.8748 -79.825873383 396.8421 
290.3647 -90.207506758 396.8421 334.981 -101.56226512 396.8421 394.7733 -113.67357609 396.8421 
476.3434 -126.18116584 396.8421 587.0114 -137.9637374 396.8421 730.1145 -146.9773254 396.8421 
899.0676 -151.19479303 396.8421 1051.602 -150.59758416 396.8421 1169.853 -147.89195673 396.8421 
1267.221 -144.4434472 396.8421 1363.188 -140.11075109 396.8421 1471.452 -134.24449274 396.8421 
1604.657 -125.77963025 396.8421 1751.55 -115.05187894 396.8421 1873.891 -105.12887354 396.8421 
2263.949 -68.256050882 396.8421 2339.792 -60.221405031 396.8421 2445.918 -48.512386358 396.8421 
2575.338 -33.484433504 396.8421 2702.515 -17.885819197 396.8421 2790.992 -6.5246368145 396.8421 
2852.473 1.627582218 396.8421 2895.4 7.4488300415 396.8421 2927.431 11.863604925 396.8421 
196.807 76.334715117 396.8421 223.3682 89.455581012 396.8421 250.7983 100.44014636 396.8421 
279.4994 110.11486894 396.8421 311.0855 119.2267296 396.8421 348.0705 128.36509119 396.8421 
393.7383 137.90708892 396.8421 455.8617 148.52670003 396.8421 546.2162 160.32735823 396.8421 
659.8003 170.61955571 396.8421 809.846 178.52155694 396.8421 1014.485 181.70604824 396.8421 
1205.528 178.85243841 396.8421 1370.477 172.92192438 396.8421 1555.851 163.17237122 396.8421 
1718.696 152.34211767 396.8421 1831.49 143.74783917 396.8421 2000.426 129.35095907 396.8421 
2142.278 115.93221731 396.8421 2199.537 110.18254642 396.8421 2362.236 92.809123664 396.8421 
2475.539 79.798433007 396.8421 2610.501 63.296856074 396.8421 2726.16 48.253159517 396.8421 
2807.613 37.136316984 396.8421 2862.05 29.456284725 396.8421 2898.509 24.197433127 396.8421 
2927.749 19.911955671 396.8421 1873.106 140.36657245 396.8421 1463.165 168.41816721 396.8421 
1538.054 -130.17315657 396.8421 1637.272 158.00174108 396.8421 1678.104 -120.58649349 396.8421 
1957.846 133.14551653 396.8421 2072.22 122.70767782 396.8421 1288 176.24362366 396.8421 
1961.524 -97.515248642 396.8421 2047.334 -89.67322051 396.8421 1770.393 148.50867378 396.8421 
2171.038 -77.72178347 396.8421 2301.989 99.421332394 396.8421 2250.655 104.88918192 396.8421 
1812.721 -110.19656597 396.8421 1803.29 145.97569422 396.8421 1915.411 136.81711947 396.8421 
2036.686 126.03395766 396.8421 2107.61 119.32086512 396.8421 2170.909 113.08098582 396.8421 
2284.511 -56.522674892 793.6842 3000.027 27.955479617 793.6842 299.6143 -14.725379249 793.6842 
288.9304 0.47962610122 793.6842 285.3691 10.222804877 793.6842 284.1801 20.183514322 793.6842 
286.5551 34.254011595 793.6842 290.1167 42.286040027 793.6842 297.2417 52.685507052 793.6842 
312.6379 67.521390802 793.6842 315.336 -28.568691368 793.6842 2197.597 -65.093237793 793.6842 
340.2947 -43.864791614 793.6842 367.0612 -56.150524166 793.6842 394.9839 -66.450458548 793.6842 
427.3123 -76.300326138 793.6842 470.3812 -87.042366574 793.6842 528.0998 -98.454834271 793.6842 
606.8411 -110.17137723 793.6842 713.6708 -121.09908231 793.6842 851.8104 -129.28344648 793.6842 
1014.904 -132.82822438 793.6842 1162.147 -131.85200037 793.6842 1276.298 -128.9786789 793.6842 
1370.288 -125.46582458 793.6842 1462.927 -121.12962844 793.6842 1567.436 -115.32618905 793.6842 
1696.021 -107.02907552 793.6842 1837.82 -96.595082806 793.6842 1955.917 -86.999262928 793.6842 
2332.447 -51.64427983 793.6842 2405.659 -43.986630475 793.6842 2508.105 -32.849820893 793.6842 
2633.037 -18.590677112 793.6842 2755.801 -3.8246668525 793.6842 2841.209 6.91125318 793.6842 
2900.561 14.606318919 793.6842 2941.997 20.097256762 793.6842 2972.917 24.259501722 793.6842 
336.9995 83.631398478 793.6842 362.6396 96.37884636 793.6842 389.1182 107.07120367 793.6842 
416.8239 116.5058105 793.6842 447.3145 125.40819701 793.6842 483.0167 134.35508435 793.6842 
527.1009 143.72103107 793.6842 587.0697 154.18127463 793.6842 674.2905 165.87021881 793.6842 
783.9349 176.16514465 793.6842 928.7766 184.23861035 793.6842 1126.317 187.85785942 793.6842 
1310.735 185.53983216 793.6842 1469.963 180.13085635 793.6842 1648.908 171.00197873 793.6842 
1806.105 160.72896347 793.6842 1914.987 152.52023986 793.6842 2078.064 138.69288792 793.6842 
2214.996 125.74012937 793.6842 2270.269 120.17460454 793.6842 2427.326 103.31033512 793.6842 
2536.699 90.641121544 793.6842 2666.98 74.531942048 793.6842 2778.628 59.812219821 793.6842 
2857.255 48.916972394 793.6842 2909.806 41.382164989 793.6842 2945.001 36.219355528 793.6842 
2973.224 32.010228227 793.6842 1955.16 149.2803301 793.6842 1559.437 175.93440525 793.6842 
1631.729 -111.32660895 793.6842 1727.505 166.1094772 793.6842 1766.921 -101.96899227 793.6842 
2036.96 142.34508373 793.6842 2147.368 132.28703459 793.6842 1390.347 183.18674349 793.6842 
2040.511 -79.664482581 793.6842 2123.346 -72.130827442 793.6842 1856.009 157.0725402 793.6842 
2242.759 -60.684263054 793.6842 2369.167 109.73651068 793.6842 2319.614 115.04348433 793.6842 
1896.869 -91.89425689 793.6842 1887.765 154.65198228 793.6842 1995.998 145.87400347 793.6842 
2113.066 135.49625015 793.6842 2181.531 129.01611065 793.6842 2242.634 122.98127557 793.6842 
2354.732 -43.342921225 1190.526 3044.539 36.863362949 1190.526 441.15 -5.2333660174 1190.526 
430.8497 9.3614198663 1190.526 427.4164 18.724063285 1190.526 426.2701 28.303598578 1190.526 
428.5601 41.848534834 1190.526 431.9934 49.587483018 1190.526 438.8627 59.615255758 1190.526 
453.7057 73.936608093 1190.526 456.3069 -18.502203956 1190.526 2270.94 -51.514007428 1190.526 
480.3688 -33.140216561 1190.526 506.1737 -44.877457108 1190.526 533.0934 -54.702059677 1190.526 
564.26 -64.082201568 1190.526 605.7815 -74.292081047 1190.526 661.4265 -85.110628793 1190.526 
737.3385 -96.174974513 1190.526 840.33 -106.42844942 1190.526 973.5064 -114.00492931 1190.526 
1130.74 -117.120103 1190.526 1272.693 -115.96579506 1190.526 1382.742 -113.067888 1190.526 
1473.356 -109.59972335 1190.526 1562.666 -105.35915369 1190.526 1663.42 -99.719821198 1190.526 
1787.385 -91.699549479 1190.526 1924.09 -81.657924486 1190.526 2037.944 -72.453135284 1190.526 
2400.946 -38.696114066 1190.526 2471.527 -31.407493222 1190.526 2570.292 -20.817726977 1190.526 
2690.735 -7.2738009058 1190.526 2809.091 6.7378580919 1190.526 2891.43 16.918673227 1190.526 
2948.647 24.213169354 1190.526 2988.597 29.417126059 1190.526 3018.403 33.361348045 1190.526 
477.1918 89.509951274 1190.526 501.9109 101.85011703 1190.526 527.4382 112.21361716 1190.526 
554.1485 121.36853006 1190.526 583.5435 130.01690025 1190.526 617.963 138.71946946 1190.526 
660.4633 147.84305875 1190.526 718.2775 158.05267057 1190.526 802.3645 169.49615381 1190.526 
908.0698 179.62543367 1190.526 1047.707 187.65064378 1190.526 1238.151 191.41646042 1190.526 
1415.942 189.38347937 1190.526 1569.449 184.29910472 1190.526 1741.965 175.59650383 1190.526 
1893.514 165.73734038 1190.526 1998.484 157.83190958 1190.526 2155.702 144.47985031 1190.526 
2287.714 131.94322169 1190.526 2341.001 126.549864 1190.526 2492.415 110.18790013 1190.526 
2597.858 97.880519116 1190.526 2723.46 82.216477398 1190.526 2831.095 67.89197086 1190.526 
2906.899 57.283548838 1190.526 2957.56 49.944780041 1190.526 2991.49 44.91530062 1190.526 
3018.699 40.814339784 1190.526 2037.214 154.70690707 1190.526 1655.708 180.30895179 1190.526 
1725.403 -95.848746946 1190.526 1817.738 170.90697942 1190.526 1855.738 -86.824745821 1190.526 
2116.075 148.01009007 1190.526 2222.516 138.2827104 1190.526 1492.694 187.18516838 1190.526 
2119.498 -65.432032457 1190.526 2199.357 -58.231612408 1190.526 1941.625 162.21831027 1190.526 
2314.479 -47.30928615 1190.526 2436.346 116.42578603 1190.526 2388.573 121.57448215 1190.526 
1981.017 -77.145514088 1190.526 1972.24 159.88661772 1190.526 2076.584 151.41881245 1190.526 
[...]
POINT_DATA 1740
FIELD FieldData 1
Pressure 1 1740 double
3.103270719 3.0190800475 3.0093114802 2.9860824288 2.9784817126 2.9578061558 2.9707583585 2.9880135418 3.019174169 
3.032857443 3.0107924096 3.1069997166 3.0338496167 3.0482681008 3.0652838464 3.0641834653 3.0814824388 3.0865744115 
3.1073440051 3.1122242401 3.1302692857 3.1377285628 3.1391437167 3.1439210679 3.138820493 3.1349419514 3.1319803013 
3.1284007376 3.122554437 3.1173215457 3.1007251058 3.097525354 3.0920137928 3.0843074998 3.0735476924 3.0638087593 
3.0538242914 3.0455372943 3.0367772243 3.0689191138 3.0812033245 3.0937283544 3.1068827644 3.1128607179 3.1200610247 
3.1274392716 3.135298288 3.1513004893 3.164233689 3.181146726 3.1925780041 3.1995116373 3.2059055576 3.2119768503 
3.216187886 3.2194373868 3.2205903143 3.2345439447 3.1222111019 3.0892495633 3.0835219821 3.0739687809 3.0642851966 
3.054105876 3.0434737185 3.0360447118 3.0343727193 3.2194543742 3.2094791444 3.1308060754 3.2133052763 3.1256083392 
3.2203729035 3.221237908 3.2063072777 3.1137075084 3.1102347114 3.2172995258 3.1050984323 3.0963200299 3.1023931083 
3.1197325398 3.2189015244 3.2201426988 3.2215868347 3.2217334184 3.2432005951 3.1002950882 3.0231394181 3.0270710398 
3.000738685 3.0078155158 2.9856994986 2.994330907 3.0064686657 3.034310383 3.0526199673 3.03515346 3.1044698993 
3.0553202322 3.0677991161 3.081202568 3.0850186464 3.1003424288 3.1095234773 3.1225038203 3.127336076 3.1370847452 
3.1404659354 3.1434099924 3.1429448492 3.1384844321 3.1341811331 3.1292856971 3.1252810458 3.1196012227 3.1146085572 
3.0980685329 3.0942359506 3.0886526376 3.0811193281 3.0702610301 3.0604789957 3.0507536249 3.0433740988 3.027376659 
3.0857331342 3.1066847167 3.1188145602 3.1273085594 3.1363364113 3.141030795 3.1466418548 3.1570344204 3.1691804373 
3.1785643757 3.1880808039 3.196339833 3.2029700305 3.2097290265 3.2135797976 3.2168226053 3.2195380382 3.2222673219 
3.1903011126 3.0805784053 3.0895524266 3.0835025648 3.0751508718 3.0649841066 3.0550195647 3.0446975427 3.0382356998 
3.0390505572 3.2202820571 3.2116416245 3.1281954856 3.2160976654 3.1221418428 3.2216428342 3.2225558807 3.2079869477 
3.1108579507 3.1073914458 3.21810646 3.102635713 3.0892350919 3.082728261 3.1173614816 3.2188866923 3.220520646 
3.2230233161 3.2260204781 3.0966198644 3.0982939765 3.0224650429 3.027842858 3.0004038216 3.002265131 2.9841977145 
2.9972321501 3.0107961134 3.0391994939 3.0604787269 3.0434413809 3.1023283024 3.058175919 3.0771605535 3.0951565294 
3.1017257826 3.1138062318 3.1220541622 3.1342876069 3.1399443237 3.146257449 3.1475622823 3.1462431805 3.1436781215 
3.1380004073 3.1328202069 3.1280585064 3.1226346253 3.1176378974 3.1127039202 3.0960184158 3.092430591 3.0866575686 
3.0792076596 3.0682158326 3.058288279 3.0490402141 3.0420384003 3.028322935 3.0931534872 3.1149514929 3.1335510213 
3.1425037334 3.1534577205 3.1618275118 3.1718852361 3.1761987961 3.1848346594 3.1948891092 3.2007470182 3.206774692 
3.209395132 3.2163395324 3.2197083035 3.2204981689 3.2222216524 3.2247932689 3.0856831349 3.0861530885 3.0849467184 
3.0806782964 3.0734451173 3.0637156418 3.0543471167 3.0447866537 3.0378278892 3.0396536277 3.2230941173 3.21823636 
3.1258369108 3.2204120305 3.1200724973 3.2239284334 3.2209996643 3.2134457343 3.1089394196 3.1053346854 3.2209242842 
3.1006824529 3.0872207154 3.0876646878 3.1154157247 3.2214536236 3.223872444 3.2245494572 3.1946802547 3.0882291276 
3.0968465328 3.0231929816 3.0286564582 3.0006123941 3.0029980762 2.9822152072 2.9930115348 3.0072603448 3.0399167024 
3.0615386055 3.0428774085 3.1008872355 3.0631725022 3.0805297918 3.0993108273 3.1082041722 3.119851542 3.1284874332 
3.1395709093 3.1460166117 3.1517764158 3.1514528396 3.1487256695 3.1443042174 3.13825531 3.1325975988 3.1273133254 
3.1216349431 3.1161520937 3.1113586844 3.0947121239 3.0911400136 3.085627727 3.0782110765 3.0674371251 3.0574679248 
3.048683043 3.0417046739 3.0287174549 3.0972810382 3.1205228118 3.136354505 3.1485269717 3.1560093866 3.1670917199 
3.1797595767 3.1897397301 3.1978772828 3.2074832127 3.2134360942 3.218437817 3.2192170719 3.2250703122 3.227729812 
3.2278138157 3.228579827 3.2297694416 3.0829748658 3.0868903308 3.0859430018 3.0817367923 3.0743712768 3.064558668 
3.0550486141 3.0459749795 3.0385754652 3.0410007783 3.2290416108 3.2266068211 3.1249032472 3.2278464718 3.118784637 
3.2294307013 3.216812574 3.2222915207 3.1076571438 3.1038412556 3.2278039462 3.0991662985 3.0872824634 3.0871554345 
3.1138383209 3.2279185424 3.229407078 3.2323567118 3.0772956451 3.0837593755 3.096011105 3.0241288336 3.0308499218 
3.0015137019 3.0086746505 2.9867616872 2.9950358597 3.0083884762 3.0419883765 3.063023053 3.0439163949 3.0999225139 
3.0652458292 3.0825470228 3.0991389566 3.1090957396 3.1213268701 3.1318451798 3.1419586951 3.149120552 3.1546807608 
3.1529488127 3.1491630156 3.1436400063 3.1374256468 3.1315423809 3.1259906202 3.1206424679 3.1151532888 3.1101678144 
3.0938315099 3.0902521805 3.084870151 3.0775155213 3.0670093395 3.0571771863 3.0485887714 3.0415196234 3.0288939112 
3.0988704909 3.1227489571 3.1381150095 3.1512167817 3.1605285494 3.1717028859 3.183275765 3.189526433 3.2008817797 
3.213357162 3.222494298 3.2276212039 3.2287194953 3.2336402785 3.2355949551 3.2353208175 3.2358183945 3.2373443909 
3.0897626075 3.0884994272 3.0880767267 3.0836842152 3.0764667661 3.0665165903 3.0570214388 3.0479480523 3.0405713704 
3.0425853274 3.2361814167 3.2351591832 3.1238883315 3.2353979965 3.1177176201 3.2362147058 3.0816379657 3.2313370969 
3.106551635 3.1027064377 3.2352736763 3.0980938674 3.089405527 3.0895175107 3.1127580713 3.23535865 3.2364835753 
3.2408515446 3.0867332959 3.0888513286 3.0952501699 3.0240637983 3.0320942244 3.0029950935 3.0107790104 2.9879737896 
2.9967198856 3.0101095118 3.043155894 3.0652494757 3.0444574332 3.0990347476 3.0660737835 3.0838185425 3.0996388588 
3.110172789 3.1222373823 3.1337434912 3.1436183026 3.150837125 3.156553148 3.1538963466 3.149178231 3.1428009374 
3.1365521525 3.1305353062 3.1249315301 3.119647694 3.114161365 3.1091905429 3.0930754373 3.0895645525 3.0842906209 
3.0770154873 3.0666478361 3.0568904528 3.0484280893 3.0412909048 3.0291067837 3.100791862 3.1250477618 3.1405586863 
3.1537361867 3.1630490445 3.1747455331 3.1875358053 3.1954279341 3.2072494146 3.2189350143 3.2297982942 3.2359671456 
3.2377756178 3.2428252713 3.2448052008 3.2434981392 3.2433122807 3.2452037956 3.0904561037 3.0903162678 3.0874019103 
3.0829770941 3.0758084836 3.0662582677 3.0571653541 3.048081464 3.0407632674 3.0429861563 3.2435358072 3.2439594562 
3.1228704356 3.2440632578 3.1167627169 3.2434301234 3.0907707149 3.2403213342 3.1055851891 3.1018188909 3.2430368144 
3.0973218622 3.0891362669 3.0895861286 3.1118439453 3.243044155 3.2438603735 3.1107906298 3.0892424249 3.0905750044 
3.0948336978 3.0228668216 3.0324679334 3.0032144712 3.0105806006 2.9878549735 2.9968008744 3.0104420271 3.0435834419 
3.0661297085 3.0445825794 3.0987332483 3.0662719349 3.0843323691 3.0998824742 3.1108221029 3.1227746905 3.1348650737 
3.1443979037 3.1517772415 3.1576052337 3.1543816121 3.149042389 3.142158532 3.1360260986 3.1299765899 3.1243984795 
3.1190273186 3.1137075262 3.1088055269 3.0927691516 3.0892993249 3.0840685989 3.0768566038 3.0665471268 3.0567839324 
3.0483690029 3.0411459079 3.0294899991 3.1019333247 3.1264338687 3.1424187508 3.1557388748 3.1654079851 3.1771968353 
3.1898958055 3.1987100022 3.2112274061 3.2238682601 3.2354026183 3.2429247502 3.2458447436 3.2520090008 3.2540029864 
3.2526748884 3.2518818737 3.2375872693 3.0854888611 3.0847595003 3.0827692039 3.0782960552 3.0711967047 3.0624357968 
3.0538551631 3.0451690426 3.0378865701 3.0408885472 3.2517739784 3.2530809998 3.1222771098 3.2535230973 3.1162016904 
3.250837506 3.0848464173 3.2486544382 3.1051723267 3.1014382704 3.2519382684 3.0969796366 3.0843366748 3.0843686067 
3.1113761251 3.2515760209 3.2519945811 3.0868780178 3.0849922256 3.085546941 3.0949011109 3.0216742915 3.0327360142 
3.0034081424 3.0108732661 2.9884229688 2.9972243668 3.0108148025 3.0441164819 3.0667559797 3.0444889894 3.0988126669 
3.0660722375 3.0840532252 3.0996638957 3.1109676796 3.122922497 3.1353138415 3.1446088765 3.1521032765 3.1580995764 
3.154571192 3.1488662991 3.141834371 3.135824995 3.1297578712 3.1242967567 3.1188175557 3.1136556325 3.1087810057 
3.0928402753 3.0893301285 3.0841792266 3.0769748692 3.0667056399 3.056852132 3.048465963 3.0411928866 3.0298734222 
3.1029549962 3.1276423855 3.1439125212 3.1574362757 3.1672115363 3.1791106385 3.191852226 3.2013393909 3.2144275476 
3.2273980298 3.2395392684 3.248192832 3.2523385905 3.258918601 3.2618189621 3.2614844826 3.26049239 3.1329987616 
3.0797972916 3.0792585987 3.0771390397 3.0729337047 3.066077956 3.0578260062 3.0495030334 3.041381499 3.0343432181 
3.0376157012 3.2603102744 3.2609858452 3.1220731902 3.2618220378 3.1161101412 3.2585754046 3.0805876687 3.2555525999 
3.1052016345 3.1015071746 3.2608408423 3.0969764025 3.0784917302 3.0784600318 3.1113185781 3.2602941607 3.2607704204 
3.0845639847 3.0797832818 3.079961563 3.0951151166 3.0214855414 3.0330446758 3.0035660887 3.0107654774 2.9890120111 
2.997965298 3.0115476807 3.0448823481 3.0676082299 3.0439834223 3.0989374938 3.0655030489 3.0836281492 3.0993601633 
3.1108937699 3.1227375623 3.1352527553 3.1446376328 3.1520701275 3.1584442278 3.1548131018 3.1489497849 3.1421222607 
3.1361275339 3.1300113344 3.1246625894 3.1190398062 3.1138817776 3.1089474762 3.0930283576 3.0895545981 3.0844379719 
3.0772159332 3.0670089756 3.057158407 3.0487575897 3.0414683785 3.0300707705 3.104237903 3.1290054352 3.1454391102 
3.1591613676 3.1690000591 3.1809937579 3.1937354988 3.2036137294 3.2171978525 3.230386689 3.2428761541 3.2524367655 
3.2573812219 3.2646544724 3.2687121552 3.2683471159 3.2681369022 3.1395489249 3.0762640045 3.0750853329 3.0734288995 
3.0697540525 3.0635679985 3.0553291255 3.0470853034 3.0393219672 3.0326351643 3.0357518013 3.2685841323 3.2670345641 
3.1223140993 3.2684729139 3.1163374059 3.2658916901 3.0766714319 3.2608540077 3.1054070657 3.1016869907 3.2681629902 
3.0971101218 3.0744751796 3.0744791126 3.1114936631 3.2678849021 3.2693485832 3.0804296167 3.0766722445 3.0763685119 
3.0954897099 3.0222561688 3.0332498688 3.003692269 3.0106080564 2.9895786118 2.9988726333 3.0124076376 3.045801045 
3.0686199713 3.0432880468 3.0993769871 3.0646965589 3.0828794746 3.0988110093 3.1104888795 3.1222942868 3.1348247026 
3.1445087705 3.1520254284 3.1586472485 3.155159761 3.1493713536 3.1425749733 3.1365920852 3.1304840389 3.12514771 
3.1195044323 3.114362062 3.1094015219 3.0934538036 3.0899387445 3.0848419383 3.0775919155 3.067417704 3.0575536589 
3.0491502382 3.041836415 3.0302787555 3.105744 3.1305392702 3.1470643093 3.1609707598 3.170849052 3.1829211917 
3.1956888756 3.205831628 3.2198328526 3.2330872118 3.2457008572 3.2556526617 3.26121639 3.2687628722 3.2734811423 
3.2740473886 3.2745153479 3.1601112641 3.0744203417 3.0738084249 3.0720791701 3.068708994 3.0630674746 3.0547049211 
3.0465911218 3.0389085853 3.0325623543 3.0353060678 3.2747559951 3.2715568084 3.1227685325 3.2740940304 3.1168344229 
3.2704791029 3.0762207126 3.264853953 3.1058753451 3.1023161224 3.2740939038 3.0974567948 3.0732001725 3.0730773326 
3.1119359584 3.2739618637 3.2749391779 3.081951032 3.0747633637 3.0749088779 3.0960393201 3.022845532 3.0331985217 
3.003764434 3.0105604854 2.9901413386 2.9999894664 3.0132967858 3.0469854223 3.0698217456 3.0424283484 3.0999059579 
3.0637263271 3.0819377803 3.0979125755 3.1095646143 3.1215031464 3.134054797 3.1441645276 3.1523140299 3.1586279918 
3.1554184641 3.1498238907 3.143196853 3.1371708518 3.1310759362 3.1256831278 3.1202193606 3.1149204413 3.1099120481 
3.0939824461 3.0903978901 3.0853093188 3.0780018412 3.0678544552 3.0579420752 3.0495357156 3.0421742491 3.0307205252 
3.1074447554 3.1322774328 3.1488012016 3.1628672608 3.1727398279 3.1848800012 3.19770052 3.2079746301 3.2223390647 
3.2355815627 3.2482430986 3.2582584186 3.2641316069 3.2719536257 3.2768621216 3.2782895508 3.2786436906 3.1919571501 
3.0720536822 3.0725577469 3.0707381795 3.0672987274 3.0617423051 3.0535319201 3.0457011044 3.0380602839 3.032039151 
3.0345302439 3.2791324535 3.2748634825 3.1234303747 3.2778640454 3.117406856 3.2767862411 3.0751815598 3.2679328154 
3.1064418553 3.1029777561 3.2783084393 3.097941814 3.0720576104 3.0717287056 3.1124159513 3.2783863091 3.2797608197 
3.0835075202 3.0721619267 3.0725554155 3.0965866371 3.0227147351 3.0329163142 3.0036791898 3.0106175646 2.9907027063 
3.0011203636 3.0141588701 3.0482869358 3.0711483309 3.0413948317 3.1004477739 3.0626233974 3.0809579201 3.0964960664 
3.1080139822 3.1202960572 3.1328533009 3.1438239301 3.1521957551 3.1584771856 3.1556969937 3.1503668398 3.1440325676 
3.1379487953 3.1318557538 3.126394868 3.1210816488 3.1154987746 3.1104858711 3.0944919432 3.0908399547 3.0857598182 
3.0783565656 3.0682608312 3.0583065332 3.0498967933 3.0424666145 3.0313812829 3.1092428607 3.1341191797 3.1505771922 
3.1647770095 3.1746304976 3.1868441024 3.1997390133 3.2100737514 3.2247507272 3.2379101149 3.2506144652 3.2605326029 
3.2665447186 3.2745486855 3.2794693497 3.2811975022 3.2818840041 3.1796191793 3.0679195719 3.0679304354 3.0675073483 
3.0641905788 3.0584666798 3.0506269466 3.0430706359 3.035632468 3.0299212043 3.032354246 3.2825903693 3.2774916692 
3.1242644667 3.2807418634 3.1181965342 3.2812028255 3.0659406579 3.2703837607 3.1069149385 3.1035030547 3.2815407332 
3.0984305201 3.0685660729 3.0681080733 3.1129310355 3.2816463313 3.2816705825 3.0737299402 3.0678543494 3.0691375732 
3.0971982011 3.022008505 3.032584165 3.0033374305 3.010563773 2.9911551903 3.0020838622 3.0149145394 3.0495791139 
3.0724645443 3.0402993533 3.1011566283 3.0615120818 3.079995844 3.0951379724 3.106513777 3.1191141969 3.1317110106 
3.1435406383 3.1523776835 3.158610962 3.1564218965 3.1514210135 3.1453219349 3.1390574622 3.1329099924 3.1273546265 
3.122125091 3.1163696136 3.1112139376 3.0950760914 3.0913318702 3.0862217097 3.0787310146 3.0686901224 3.0586675538 
3.050233765 3.0427459009 3.0322278861 3.1111049416 3.135987572 3.1523463474 3.1667153144 3.1765212329 3.1888341459 
3.2018154149 3.2121636322 3.2271344789 3.240148418 3.2528224172 3.2626630784 3.2686725418 3.2766643938 3.2815827367 
3.283485351 3.2843172202 3.1520109669 3.0648413877 3.0648229867 3.0640023424 3.0605611111 3.0547423167 3.0472424971 
3.0398685921 3.032739303 3.0273575889 3.0296599309 3.2850159401 3.279661055 3.1253280298 3.2829298619 3.1191780625 
3.2884857102 3.0629292452 3.2725104487 3.1076779261 3.1042502467 3.2839208513 3.0990487981 3.0651526086 3.0647785699 
3.1136965783 3.2840319633 3.2856384021 3.0700787155 3.0647929017 3.0651713615 3.0978985544 3.0221345883 3.0324486049 
3.0029409197 3.0102411026 2.991606006 3.0028560088 3.0155903107 3.050989127 3.0738284398 3.0393552746 3.1019118697 
3.0606535485 3.0792642014 3.0940666098 3.1053114632 3.1182120217 3.1307474986 3.1434785534 3.152571991 3.1589859069 
3.1575848773 3.1529732778 3.1469758835 3.1404601056 3.1342082395 3.1285007457 3.1231645475 3.1173192089 3.1120468958 
3.095736873 3.0919079115 3.0867394509 3.0791646337 3.0691215912 3.059001498 3.0505254033 3.0430141265 3.0327212608 
3.1131449275 3.1379464929 3.1541310862 3.1686812449 3.1784134666 3.1908911732 3.2039610932 3.2142445414 3.2294192115 
3.2422419149 3.2548389696 3.2645192166 3.2705608085 3.2784709057 3.2834057105 3.2853656073 3.286359508 3.1015578541 
3.0632294236 3.0633441298 3.0617728013 3.0584906144 3.0530849326 3.0458047906 3.0384996928 3.0317284923 3.0266218681 
3.0285788207 3.2870859183 3.281547819 3.1264788475 3.2848513637 3.1202713154 3.2860073716 3.0654763927 3.2743809112 
3.1085315662 3.1050700567 3.2858789805 3.0997569275 3.0630143575 3.0628606091 3.1145594976 3.2860090376 3.2877601144 
3.0696898161 3.064646034 3.0630072705 3.0986506499 3.0230291985 3.0322066952 3.0026485335 3.0103527144 2.9921636625 
3.0033815753 3.0161599601 3.0523126751 3.0752267537 3.038755413 3.1027014879 3.0597584103 3.0785508222 3.0933075336 
3.1043726322 3.1175119516 3.1297162535 3.1436887202 3.152663226 3.1596808251 3.1593473299 3.1548681537 3.1489508074 
3.1420541711 3.1355712942 3.1295898567 3.1242760416 3.118344883 3.1130049108 3.0964605892 3.0925541704 3.0873311505 
3.0796514053 3.0695503871 3.0592976258 3.0507636189 3.0431906543 3.032668578 3.1149447535 3.1399025136 3.155712666 
3.1703861661 3.1800946533 3.1925819181 3.205888575 3.2160831287 3.2312248638 3.2439590611 3.2563693541 3.2661126449 
3.2722615337 3.2800696145 3.2852314107 3.2875981946 3.288787513 3.0677876579 3.0643564111 3.064019567 3.0628673067 
3.0600537527 3.0551405533 3.0476336645 3.0402611025 3.033450906 3.0285049816 3.0298122658 3.2896742895 3.283206919 
3.1276078929 3.2869389458 3.1213760767 3.2886681359 3.0638657539 3.2760563204 3.1094275359 3.1060049324 3.2880090808 
3.1005194928 3.0642224439 3.064452694 3.115548749 3.2883128457 3.2894469654 3.0613423296 3.0642399695 3.0640512605 
3.0994263199 3.0245887493 3.0305623357 3.0011777251 3.0098024043 2.9915585894 3.0032085785 3.0162011294 3.0525840728 
3.0757359097 3.0371812161 3.1036546506 3.0583359128 3.0772537787 3.0924515314 3.1035589827 3.1169351666 3.1287691151 
3.1438139342 3.1525855112 3.1608252073 3.161822692 3.1575218116 3.1515758056 3.1440390518 3.1371490934 3.1309832276 
3.1254902381 3.1199808153 3.1141775374 3.0971744618 3.0931608063 3.0879319865 3.0800898478 3.0698722356 3.0594374005 
3.0508539896 3.043212644 3.0317449051 3.1156363115 3.1411294673 3.1564489267 3.1709300179 3.1807799991 3.1936183517 
3.2071569612 3.2173502262 3.2322320188 3.245313952 3.2580983844 3.2673577865 3.2740149127 3.2822004948 3.288441861 
3.2906169852 3.290658019 3.0661144103 3.0679793172 3.0680826738 3.0674466626 3.064107347 3.0592711654 3.0514474398 
3.044073053 3.0370684215 3.03195314 3.0331686231 3.2911164552 3.2856090861 3.1289764622 3.2899907251 3.1223923287 
3.2924437844 3.065075978 3.2778265405 3.1106586624 3.1069693061 3.2909519723 3.1013152326 3.068487922 3.0681231433 
3.1167518889 3.2909965188 3.2980269675 3.0615075896 3.0664810228 3.0677169619 3.0999147904 3.0256863441 3.0293243249 
2.9988018575 3.0052377055 2.9908389104 3.0015890905 3.0151733556 3.051095242 3.075161798 3.0362395447 3.1041387291 
3.0577848072 3.076871199 3.0929654128 3.103514514 3.1171500203 3.1280401701 3.1454945003 3.1546598556 3.1642455499 
3.1671177105 3.161771857 3.1554762582 3.1464369394 3.1390139765 3.1323213743 3.1260711786 3.1197177078 3.1149343108 
3.0980274676 3.0938085722 3.0885088883 3.0807205445 3.0701675515 3.0593798478 3.0506809663 3.04273608 3.0300988446 
3.1151131057 3.1407678818 3.1566008006 3.1715702374 3.1814958929 3.1940725455 3.207796719 3.2188150977 3.2343602379 
3.2480797956 3.2608026983 3.2732024254 3.2777985389 3.2854831207 3.2901288389 3.2906280862 3.2896044091 3.0654175473 
3.0714336052 3.0707127914 3.0708441074 3.0681541151 3.0630666786 3.0550566919 3.047977153 3.0409872281 3.0354176222 
3.0374556923 3.3027710875 3.2886978964 3.1294891241 3.2908138626 3.1228613913 3.0567632571 3.0691607982 3.2812055572 
3.1108875219 3.1073359684 3.2905948091 3.1019242087 3.0717006853 3.0718671754 3.1174011542 3.2901892728 3.2225378296 
3.0660305124 3.0700976336 3.0712271852 3.1001750527 3.0291536523 3.0319684548 3.002810466 3.0063945284 2.9904310278 
3.001849752 3.0164738493 3.0503767437 3.0733161623 3.0402905837 3.1033010459 3.0614849879 3.0805195208 3.0957287033 
3.1071060504 3.1208787466 3.1328594216 3.1517383433 3.1704280048 3.1722018043 3.1723717116 3.165628038 3.1563181644 
3.1459066589 3.1383213714 3.1309871038 3.1250814257 3.1181701077 3.1129328915 3.096783121 3.0944476301 3.0888934372 
3.0792767132 3.069905593 3.058586239 3.049626387 3.0407932624 3.028414539 3.1111639584 3.1386695493 3.1611091733 
3.1757946685 3.184397011 3.2039202465 3.2129441687 3.2233525826 3.2406248068 3.2538350585 3.2694775982 3.2770854791 