# vtk DataFile Version 4.2
vtk output
ASCII
DATASET POLYDATA
POINTS 10029 float
-87.2203 -2824.62 5800 -100.935 -2821.22 5800 -79.996 -2821.22 5800 
-116.22 -2813.65 5800 -125.013 -2808.22 5800 -58.2182 -2810.98 5800 
-52.352 -2808.22 5800 -145.22 -2795.73 5800 -146.156 -2795.22 5800 
-29.2162 -2797.34 5800 -24.708 -2795.22 5800 -169.241 -2782.22 5800 
-0.214114 -2783.7 5800 2.93609 -2782.21 5800 -174.22 -2779.31 5800 
-197.148 -2769.22 5800 28.7879 -2770.05 5800 30.5806 -2769.21 5800 
-203.22 -2766.55 5800 -226.683 -2756.22 5800 57.79 -2756.41 5800 
58.2246 -2756.21 5800 -232.22 -2753.78 5800 -256.218 -2743.22 5800 
85.8686 -2743.21 5800 -261.22 -2741.02 5800 -285.753 -2730.22 5800 
86.792 -2742.77 5800 113.513 -2730.21 5800 -290.22 -2728.25 5800 
-315.288 -2717.22 5800 115.794 -2729.13 5800 141.157 -2717.2 5800 
-319.22 -2715.49 5800 -344.823 -2704.22 5800 144.796 -2715.49 5800 
168.801 -2704.2 5800 -348.22 -2702.72 5800 -374.358 -2691.22 5800 
173.798 -2701.85 5800 196.445 -2691.2 5800 -377.22 -2689.96 5800 
-403.893 -2678.22 5800 202.8 -2688.21 5800 224.089 -2678.2 5800 
-406.22 -2677.2 5800 -433.428 -2665.22 5800 231.802 -2674.57 5800 
251.733 -2665.2 5800 -435.22 -2664.43 5800 -462.963 -2652.22 5800 
260.804 -2660.93 5800 279.228 -2652.19 5800 -464.22 -2651.67 5800 
-492.499 -2639.22 5800 289.806 -2647.13 5800 306.151 -2639.19 5800 
-493.22 -2638.9 5800 -522.034 -2626.22 5800 318.808 -2633.04 5800 
332.915 -2626.19 5800 -551.22 -2613.43 5800 -551.705 -2613.22 5800 
-522.22 -2626.14 5800 347.811 -2618.95 5800 359.679 -2613.19 5800 
-580.22 -2600.87 5800 -581.72 -2600.22 5800 376.813 -2604.87 5800 
386.304 -2600.19 5800 -609.22 -2588.31 5800 -611.736 -2587.22 5800 
405.815 -2590.72 5800 412.799 -2587.18 5800 -638.22 -2575.75 5800 
-641.752 -2574.22 5800 434.817 -2576.08 5800 438.57 -2574.18 5800 
-667.22 -2563.19 5800 -671.768 -2561.22 5800 463.819 -2561.41 5800 
464.269 -2561.18 5800 -696.22 -2550.63 5800 -701.784 -2548.22 5800 
489.968 -2548.18 5800 -725.22 -2538.07 5800 -732.369 -2535.22 5800 
492.821 -2546.74 5800 515.668 -2535.18 5800 -754.22 -2526.44 5800 
-764.954 -2522.22 5800 521.823 -2532.06 5800 541.367 -2522.18 5800 
-783.22 -2515.04 5800 -798.027 -2509.22 5800 550.825 -2517.39 5800 
567.066 -2509.17 5800 -812.221 -2503.64 5800 -831.099 -2496.22 5800 
579.828 -2502.72 5800 592.766 -2496.17 5800 -841.221 -2492.24 5800 
-864.171 -2483.22 5800 608.83 -2488.04 5800 618.465 -2483.17 5800 
-870.221 -2480.84 5800 -897.244 -2470.22 5800 637.832 -2473.37 5800 
644.164 -2470.17 5800 -928.221 -2458.04 5800 -930.316 -2457.22 5800 
-899.221 -2469.44 5800 666.834 -2458.7 5800 669.863 -2457.17 5800 
-957.221 -2446.65 5800 -963.388 -2444.22 5800 695.563 -2444.16 5800 
-986.221 -2435.25 5800 -996.46 -2431.22 5800 695.836 -2444.03 5800 
721.262 -2431.16 5800 -1015.22 -2423.85 5800 -1029.53 -2418.22 5800 
724.838 -2429.35 5800 746.961 -2418.16 5800 -1044.22 -2412.45 5800 
-1062.6 -2405.22 5800 753.84 -2414.68 5800 772.661 -2405.16 5800 
-1073.22 -2401.05 5800 -1095.68 -2392.22 5800 782.842 -2400.01 5800 
798.36 -2392.16 5800 -1102.22 -2389.65 5800 -1128.75 -2379.22 5800 
811.844 -2385.33 5800 824.059 -2379.15 5800 -1160.22 -2366.85 5800 
-1161.82 -2366.22 5800 -1131.22 -2378.25 5800 840.847 -2370.66 5800 
849.758 -2366.15 5800 -1189.22 -2355.45 5800 -1194.89 -2353.22 5800 
869.849 -2355.99 5800 875.458 -2353.15 5800 -1218.22 -2344.05 5800 
-1227.97 -2340.22 5800 898.851 -2341.32 5800 901.157 -2340.15 5800 
-1247.22 -2332.65 5800 -1261.04 -2327.22 5800 926.856 -2327.15 5800 
-1276.22 -2321.25 5800 -1294.11 -2314.22 5800 927.853 -2326.64 5800 
954.665 -2314.15 5800 -1305.22 -2309.85 5800 -1327.18 -2301.22 5800 
956.855 -2313.25 5800 985.857 -2304.5 5800 997.008 -2301.14 5800 
-1334.22 -2298.46 5800 -1355.47 -2288.22 5800 1014.86 -2295.76 5800 
1040.15 -2288.14 5800 -1363.22 -2279.99 5800 -1366.53 -2275.22 5800 
1043.86 -2287.02 5800 1072.86 -2278.28 5800 1077.25 -2275.14 5800 
-1375.53 -2262.22 5800 1101.86 -2264.24 5800 1103.7 -2262.14 5800 
3972.96 -2262.76 5800 3959.13 -2262.04 5800 3974.54 -2262.04 5800 
-1384.54 -2249.22 5800 1113.77 -2249.13 5800 3943.96 -2261.57 5800 
3937.15 -2249.04 5800 4001.97 -2249.45 5800 4002.88 -2249.03 5800 
-1392.22 -2238.14 5800 -1393.55 -2236.22 5800 1125.1 -2236.13 5800 
3930.72 -2236.04 5800 4030.97 -2236.15 5800 4031.22 -2236.03 5800 
-1402.55 -2223.22 5800 1130.87 -2231 5800 1137.73 -2223.13 5800 
3924.35 -2223.04 5800 4059.56 -2223.03 5800 -1411.56 -2210.22 5800 
1149.08 -2210.13 5800 3916.27 -2210.03 5800 4059.97 -2222.84 5800 
4087.9 -2210.03 5800 -1420.57 -2197.22 5800 1159.87 -2197.76 5800 
1160.42 -2197.13 5800 3914.97 -2208.22 5800 3908.89 -2197.03 5800 
4088.97 -2209.54 5800 4116.24 -2197.03 5800 -1421.22 -2196.28 5800 
-1429.58 -2184.22 5800 1171.76 -2184.13 5800 3901.82 -2184.03 5800 
4117.97 -2196.23 5800 4144.59 -2184.02 5800 -1438.58 -2171.22 5800 
1183.11 -2171.13 5800 3894.76 -2171.03 5800 4146.98 -2182.93 5800 
4172.93 -2171.02 5800 -1447.59 -2158.22 5800 1188.87 -2164.51 5800 
1194.45 -2158.12 5800 3887.69 -2158.03 5800 4175.98 -2169.62 5800 
4201.27 -2158.02 5800 -1450.22 -2154.34 5800 -1455.93 -2145.22 5800 
1205.79 -2145.12 5800 3885.97 -2154.86 5800 3880.63 -2145.03 5800 
4204.98 -2156.31 5800 4233.98 -2148 5800 4244.9 -2145.02 5800 
-1463.88 -2132.21 5800 1217.14 -2132.12 5800 3873.56 -2132.03 5800 
4262.98 -2140.09 5800 4291.98 -2132.19 5800 4292.62 -2132.02 5800 
-1471.82 -2119.21 5800 1217.88 -2131.27 5800 1228.48 -2119.12 5800 
3866.5 -2119.03 5800 4320.99 -2124.28 5800 4340.33 -2119.01 5800 
-1479.21 -2107.11 5800 -1479.76 -2106.21 5800 1239.82 -2106.12 5800 
3859.43 -2106.03 5800 4349.99 -2116.38 5800 4378.99 -2108.48 5800 
4388.04 -2106.01 5800 -1487.7 -2093.21 5800 1246.88 -2098.03 5800 
1251.17 -2093.12 5800 3856.97 -2101.5 5800 3852.37 -2093.03 5800 
4407.99 -2100.57 5800 4435.75 -2093.01 5800 -1495.65 -2080.21 5800 
1262.51 -2080.12 5800 3845.3 -2080.03 5800 4436.99 -2092.67 5800 
4465.99 -2084.77 5800 4483.46 -2080.01 5800 -1503.59 -2067.21 5800 
1273.85 -2067.11 5800 3838.24 -2067.03 5800 4495 -2076.86 5800 
4524 -2068.96 5800 4553 -2070.81 5800 4582 -2071.04 5800 
4595.8 -2067 5800 -1508.21 -2059.64 5800 -1511.53 -2054.21 5800 
1275.89 -2064.79 5800 1285.2 -2054.11 5800 3831.17 -2054.03 5800 
4611 -2057.17 5800 4612.91 -2054 5800 -1519.47 -2041.21 5800 
1296.54 -2041.11 5800 3827.97 -2048.14 5800 3824.11 -2041.03 5800 
4619.3 -2041 5800 -1527.42 -2028.21 5800 1304.89 -2031.54 5800 
1307.88 -2028.11 5800 3817.04 -2028.02 5800 4624.02 -2028 5800 
-1535.36 -2015.21 5800 1319.23 -2015.11 5800 3810.92 -2015.02 5800 
4627.66 -2015 5800 -1537.21 -2012.18 5800 -1543.3 -2002.21 5800 
1330.79 -2002.11 5800 3810.08 -2002.02 5800 4632.55 -2001.99 5800 
-1551.24 -1989.21 5800 1333.89 -1998.65 5800 1342.56 -1989.11 5800 
3810.24 -1989.02 5800 4637.63 -1988.99 5800 -1559.19 -1976.21 5800 
1354.37 -1976.11 5800 3812.03 -1976.02 5800 4640.01 -1982.9 5800 
4643.89 -1975.99 5800 -1566.21 -1964.72 5800 -1567.13 -1963.2 5800 
1362.9 -1966.72 5800 1366.18 -1963.1 5800 3813.82 -1963.02 5800 
4649.63 -1962.99 5800 -1575.07 -1950.2 5800 1377.99 -1950.1 5800 
3815.61 -1950.02 5800 4653.95 -1949.99 5800 -1583.01 -1937.2 5800 
1389.81 -1937.1 5800 3817.4 -1937.02 5800 4657.94 -1936.99 5800 
-1590.96 -1924.2 5800 1391.9 -1934.8 5800 1401.62 -1924.1 5800 
3819.19 -1924.02 5800 4663.01 -1923.99 5800 -1595.2 -1917.25 5800 
-1598.9 -1911.2 5800 1413.43 -1911.1 5800 3820.06 -1911.02 5800 
4668.09 -1910.99 5800 -1606.84 -1898.2 5800 1420.9 -1902.87 5800 
1425.24 -1898.1 5800 3814.84 -1898.01 5800 4669.01 -1908.62 5800 
4674.62 -1897.98 5800 -1614.78 -1885.2 5800 1437.05 -1885.1 5800 
3808.24 -1885.01 5800 4679.81 -1884.98 5800 -1622.72 -1872.2 5800 
1448.87 -1872.09 5800 3800.99 -1872.01 5800 4683.79 -1871.98 5800 
-1624.2 -1869.79 5800 -1630.67 -1859.2 5800 1449.91 -1870.95 5800 
1460.68 -1859.09 5800 3798.99 -1868.42 5800 3793.74 -1859.01 5800 
4688.4 -1858.98 5800 -1638.61 -1846.2 5800 1472.49 -1846.09 5800 
3786.48 -1846.01 5800 4693.48 -1845.98 5800 -1646.55 -1833.2 5800 
1478.91 -1839.02 5800 1484.3 -1833.09 5800 3779.23 -1833.01 5800 
4698.02 -1834.35 5800 4698.82 -1832.98 5800 -1653.2 -1822.32 5800 
-1654.49 -1820.2 5800 1496.11 -1820.09 5800 3771.98 -1820.01 5800 
4705.14 -1819.98 5800 -1662.44 -1807.2 5800 1507.91 -1807.1 5800 
1507.92 -1807.09 5800 3769.99 -1816.44 5800 3764.73 -1807.01 5800 
4709.88 -1806.98 5800 -1670.38 -1794.2 5800 1519.74 -1794.09 5800 
3757.47 -1794.01 5800 4713.55 -1793.98 5800 -1678.32 -1781.19 5800 
1531.55 -1781.08 5800 3750.22 -1781.01 5800 4718.87 -1780.97 5800 
-1682.19 -1774.86 5800 -1686.26 -1768.19 5800 1536.92 -1775.18 5800 
1542.57 -1768.08 5800 3742.97 -1768.01 5800 4723.94 -1767.97 5800 
-1694.21 -1755.19 5800 1551.69 -1755.08 5800 3740.99 -1764.46 5800 
3735.78 -1755.01 5800 4727.03 -1760.08 5800 4729.79 -1754.97 5800 
-1702.15 -1742.19 5800 1559.08 -1742.08 5800 3729.01 -1742.01 5800 
4735.5 -1741.97 5800 -1710.09 -1729.19 5800 1565.92 -1729.69 5800 
1566.26 -1729.08 5800 3722.76 -1729 5800 4739.84 -1728.97 5800 
-1711.19 -1727.39 5800 -1718.03 -1716.19 5800 1573.44 -1716.08 5800 
3716.51 -1716 5800 4744.25 -1715.97 5800 -1725.98 -1703.19 5800 
1580.62 -1703.08 5800 3712 -1706.61 5800 3710.26 -1703 5800 
4749.33 -1702.97 5800 -1733.92 -1690.19 5800 1587.81 -1690.08 5800 
3704.01 -1690 5800 4754.41 -1689.97 5800 -1740.19 -1679.93 5800 
-1741.86 -1677.19 5800 1594.93 -1677.19 5800 1594.99 -1677.07 5800 
3697.76 -1677 5800 4756.03 -1685.8 5800 4760.53 -1676.96 5800 
-1749.8 -1664.19 5800 1602.17 -1664.07 5800 3691.51 -1664 5800 
4765.71 -1663.96 5800 -1757.75 -1651.19 5800 1609.35 -1651.07 5800 
3685.26 -1651 5800 4769.71 -1650.96 5800 -1765.69 -1638.19 5800 
1616.54 -1638.07 5800 3683 -1646.31 5800 3679 -1638 5800 
4774.72 -1637.96 5800 -1769.19 -1632.46 5800 -1773.63 -1625.19 5800 
1623.72 -1625.07 5800 3672.75 -1625 5800 4779.8 -1624.96 5800 
-1781.57 -1612.19 5800 1623.93 -1624.69 5800 1631.12 -1612.07 5800 
[...]
POINT_DATA 10029
SCALARS Pressure double
LOOKUP_TABLE default
3.0899519984 3.0899519984 3.0899519984 3.0899519984 3.0899519984 3.0899519984 3.0899519984 3.0899519984 3.0899519984 
3.0899519984 3.0899519984 3.0899519984 3.0899519984 3.0899519984 3.0899519984 3.0899519984 3.0899519984 3.0899519984 
3.0899519984 3.0899519984 3.0899519984 3.0899519984 3.0899519984 3.0899519984 3.0899519984 3.0899519984 3.0899519984 
3.0899519984 3.0899519984 3.0899519984 3.0899519984 3.0899519984 3.0899519984 3.0899519984 3.0899519984 3.0899519984 
3.0899519984 3.0899519984 3.0899519984 3.0899519984 3.0899519984 3.0899519984 3.0899519984 3.0899519984 3.0899519984 
3.0899519984 3.0899519984 3.0899519984 3.0899519984 3.0899519984 3.0899519984 3.0899519984 3.0899519984 3.0899519984 
3.0899519984 3.0899519984 3.0899519984 3.0899519984 3.0899519984 3.0899519984 3.0899519984 3.0899519984 3.0899519984 
3.0899519984 3.0899519984 3.0899519984 3.0899519984 3.0899519984 3.0899519984 3.0899519984 3.0899519984 3.0899519984 
3.0899519984 3.0899519984 3.0899519984 3.0899519984 3.0899519984 3.0899519984 3.0899519984 3.0899519984 3.0899519984 
3.0899519984 3.0899519984 3.0899519984 3.0899519984 3.0899519984 3.0899519984 3.0899519984 3.0899519984 3.0899519984 
3.0899519984 3.0899519984 3.0899519984 3.0899519984 3.0899519984 3.0899519984 3.0899519984 3.0899519984 3.0899519984 
3.0899519984 3.0899519984 3.0899519984 3.0899519984 3.0899519984 3.0899519984 3.0899519984 3.0899519984 3.0899519984 
3.0899519984 3.0899519984 3.0899519984 3.0899519984 3.0899519984 3.0899519984 3.0899519984 3.0899519984 3.0899519984 
3.0899519984 3.0899519984 3.0899519984 3.0899519984 3.0899519984 3.0899519984 3.0899519984 3.0899519984 3.0899519984 
3.0899519984 3.0899519984 3.0899519984 3.0899519984 3.0899519984 3.0899519984 3.0899519984 3.0899519984 3.0899519984 
3.0899519984 3.0899519984 3.0899519984 3.0899519984 3.0899519984 3.0899519984 3.0899519984 3.0899519984 3.0899519984 
3.0899519984 3.0899519984 3.0899519984 3.0899519984 3.0899519984 3.0899519984 3.0899519984 3.0899519984 3.0899519984 
3.0899519984 3.0899519984 3.0899519984 3.0899519984 3.0899519984 3.0899519984 3.0899519984 3.0899519984 3.0899519984 
3.0899519984 3.0899519984 3.0899519984 3.0899519984 3.0899519984 3.0899519984 3.0899519984 3.0899519984 3.0899519984 
3.0899519984 3.0899519984 3.0899519984 3.0899519984 3.0899519984 3.0899519984 3.0899519984 3.0899519984 3.0899519984 
3.0899519984 3.0899519984 3.0899519984 3.0899519984 3.0899519984 3.0899519984 3.0899519984 3.0899519984 3.0899519984 
3.0899519984 3.0899519984 3.0899519984 3.0899519984 3.0899519984 3.0899519984 3.0899519984 3.0899519984 3.0899519984 
3.0899519984 3.0899519984 3.0899519984 3.0899519984 3.0899519984 3.0899519984 3.0899519984 3.0899519984 3.0899519984 
3.0899519984 3.0899519984 3.0899519984 3.0899519984 3.0899519984 3.0899519984 3.0899519984 3.0899519984 3.0899519984 
3.0899519984 3.0899519984 3.0899519984 3.0899519984 3.0899519984 3.0899519984 3.0899519984 3.0899519984 3.0899519984 
3.0899519984 3.0899519984 3.0899519984 3.0899519984 3.0899519984 3.0899519984 3.0899519984 3.0899519984 3.0899519984 
3.0899519984 3.0899519984 3.0899519984 3.0899519984 3.0899519984 3.0899519984 3.0899519984 3.0899519984 3.0899519984 
3.0899519984 3.0899519984 3.0899519984 3.0899519984 3.0899519984 3.0899519984 3.0899519984 3.0899519984 3.0899519984 
3.0899519984 3.0899519984 3.0899519984 3.0899519984 3.0899519984 3.0899519984 3.0899519984 3.0899519984 3.0899519984 
3.0899519984 3.0899519984 3.0899519984 3.0899519984 3.0899519984 3.0899519984 3.0899519984 3.0899519984 3.0899519984 
3.0899519984 3.0899519984 3.0899519984 3.0899519984 3.0899519984 3.0899519984 3.0899519984 3.0899519984 3.0899519984 
3.0899519984 3.0899519984 3.0899519984 3.0899519984 3.0899519984 3.0899519984 3.0899519984 3.0899519984 3.0899519984 
3.0899519984 3.0899519984 3.0899519984 3.0899519984 3.0899519984 3.0899519984 3.0899519984 3.0899519984 3.0899519984 
3.0899519984 3.0899519984 3.0899519984 3.0899519984 3.0899519984 3.0899519984 3.0899519984 3.0899519984 3.0899519984 
3.0899519984 3.0899519984 3.0899519984 3.0899519984 3.0899519984 3.0899519984 3.0899519984 3.0899519984 3.0899519984 
3.0899519984 3.0899519984 3.0899519984 3.0899519984 3.0899519984 3.0899519984 3.0899519984 3.0899519984 3.0899519984 
3.0899519984 3.0899519984 3.0899519984 3.0899519984 3.0899519984 3.0899519984 3.0899519984 3.0899519984 3.0899519984 
3.0899519984 3.0899519984 3.0899519984 3.0899519984 3.0899519984 3.0899519984 3.0899519984 3.0899519984 3.0899519984 
3.0899519984 3.0899519984 3.0899519984 3.0899519984 3.0899519984 3.0899519984 3.0899519984 3.0899519984 3.0899519984 
3.0899519984 3.0899519984 3.0899519984 3.0899519984 3.0899519984 3.0899519984 3.0899519984 3.0899519984 3.0899519984 
3.0899519984 3.0899519984 3.0899519984 3.0899519984 3.0899519984 3.0899519984 3.0899519984 3.0899519984 3.0899519984 
3.0899519984 3.0899519984 3.0899519984 3.0899519984 3.0899519984 3.0899519984 3.0899519984 3.0899519984 3.0899519984 
3.0899519984 3.0899519984 3.0899519984 3.0899519984 3.0899519984 3.0899519984 3.0899519984 3.0899519984 3.0899519984 
3.0899519984 3.0899519984 3.0899519984 3.0899519984 3.0899519984 3.0899519984 3.0899519984 3.0899519984 3.0899519984 
3.0899519984 3.0899519984 3.0899519984 3.0899519984 3.0899519984 3.0899519984 3.0899519984 3.0899519984 3.0899519984 
3.0899519984 3.0899519984 3.0899519984 3.0899519984 3.0899519984 3.0899519984 3.0899519984 3.0899519984 3.0899519984 
3.0899519984 3.0899519984 3.0899519984 3.0899519984 3.0899519984 3.0899519984 3.0899519984 3.0899519984 3.0899519984 
3.0899519984 3.0899519984 3.0899519984 3.0899519984 3.0899519984 3.0899519984 3.0899519984 3.0899519984 3.0899519984 
3.0899519984 3.0899519984 3.0899519984 3.0899519984 3.0899519984 3.0899519984 3.0899519984 3.0899519984 3.0899519984 
3.0899519984 3.0899519984 3.0899519984 3.0899519984 3.0899519984 3.0899519984 3.0899519984 3.0899519984 3.0899519984 
3.0899519984 3.0899519984 3.0899519984 3.0899519984 3.0899519984 3.0899519984 3.0899519984 3.0899519984 3.0899519984 
3.0899519984 3.0899519984 3.0899519984 3.0899519984 3.0899519984 3.0899519984 3.0899519984 3.0899519984 3.0899519984 
3.0899519984 3.0899519984 3.0899519984 3.0899519984 3.0899519984 3.0899519984 3.0899519984 3.0899519984 3.0899519984 
3.0899519984 3.0899519984 3.0899519984 3.0899519984 3.0899519984 3.0899519984 3.0899519984 3.0899519984 3.0899519984 
3.0899519984 3.0899519984 3.0899519984 3.0899519984 3.0899519984 3.0899519984 3.0899519984 3.0899519984 3.0899519984 
3.0899519984 3.0899519984 3.0899519984 3.0899519984 3.0899519984 3.0899519984 3.0899519984 3.0899519984 3.0899519984 
3.0899519984 3.0899519984 3.0899519984 3.0899519984 3.0899519984 3.0899519984 3.0899519984 3.0899519984 3.0899519984 
3.0899519984 3.0899519984 3.0899519984 3.0899519984 3.0899519984 3.0899519984 3.0899519984 3.0899519984 3.0899519984 
3.0899519984 3.0899519984 3.0899519984 3.0899519984 3.0899519984 3.0899519984 3.0899519984 3.0899519984 3.0899519984 
3.0899519984 3.0899519984 3.0899519984 3.0899519984 3.0899519984 3.0899519984 3.0899519984 3.0899519984 3.0899519984 
3.0899519984 3.0899519984 3.0899519984 3.0899519984 3.0899519984 3.0899519984 3.0899519984 3.0899519984 3.0899519984 
3.0899519984 3.0899519984 3.0899519984 3.0899519984 3.0899519984 3.0899519984 3.0899519984 3.0899519984 3.0899519984 
3.0899519984 3.0899519984 3.0899519984 3.0899519984 3.0899519984 3.0899519984 3.0899519984 3.0899519984 3.0899519984 
3.0899519984 3.0899519984 3.0899519984 3.0899519984 3.0899519984 3.0899519984 3.0899519984 3.0899519984 3.0899519984 
3.0899519984 3.0899519984 3.0899519984 3.0899519984 3.0899519984 3.0899519984 3.0899519984 3.0899519984 3.0899519984 
3.0899519984 3.0899519984 3.0899519984 3.0899519984 3.0899519984 3.0899519984 3.0899519984 3.0899519984 3.0899519984 
3.0899519984 3.0899519984 3.0899519984 3.0899519984 3.0899519984 3.0899519984 3.0899519984 3.0899519984 3.0899519984 
3.0899519984 3.0899519984 3.0899519984 3.0899519984 3.0899519984 3.0899519984 3.0899519984 3.0899519984 3.0899519984 
3.0899519984 3.0899519984 3.0899519984 3.0899519984 3.0899519984 3.0899519984 3.0899519984 3.0899519984 3.0899519984 
3.0899519984 3.0899519984 3.0899519984 3.0899519984 3.0899519984 3.0899519984 3.0899519984 3.0899519984 3.0899519984 
3.0899519984 3.0899519984 3.0899519984 3.0899519984 3.0899519984 3.0899519984 3.0899519984 3.0899519984 3.0899519984 
3.0899519984 3.0899519984 3.0899519984 3.0899519984 3.0899519984 3.0899519984 3.0899519984 3.0899519984 3.0899519984 
3.0899519984 3.0899519984 3.0899519984 3.0899519984 3.0899519984 3.0899519984 3.0899519984 3.0899519984 3.0899519984 
3.0899519984 3.0899519984 3.0899519984 3.0899519984 3.0899519984 3.0899519984 3.0899519984 3.0899519984 3.0899519984 
3.0899519984 3.0899519984 3.0899519984 3.0899519984 3.0899519984 3.0899519984 3.0899519984 3.0899519984 3.0899519984 
3.0899519984 3.0899519984 3.0899519984 3.1030096824 3.1030096824 3.1030096824 3.1030096824 3.0899519984 3.0899519984 
3.0899519984 3.0899519984 3.0899519984 3.0899519984 3.1030096824 3.1030096824 3.1030096824 3.1030096824 3.0899519984 
3.0899519984 3.0899519984 3.0899519984 3.1030096824 3.1030096824 3.1030096824 3.1030096824 3.1030096824 3.1030096824 
3.0899519984 3.0899519984 3.0899519984 3.0899519984 3.0899519984 3.0899519984 3.0899519984 3.0899519984 3.1030096824 
3.1030096824 3.1030096824 3.1030096824 3.1030096824 3.0899519984 3.0899519984 3.0899519984 3.0899519984 3.0899519984 
3.0899519984 3.0899519984 3.0899519984 3.0899519984 3.0899519984 3.0899519984 3.1030096824 3.1030096824 3.1030096824 
3.1030096824 3.0899519984 3.0899519984 3.0899519984 3.0899519984 3.0899519984 3.0899519984 3.0899519984 3.0899519984 
3.0899519984 3.0899519984 3.0899519984 3.0899519984 3.1030096824 3.1030096824 3.1030096824 3.0899519984 3.0899519984 
3.0899519984 3.0899519984 3.0899519984 3.0899519984 3.0899519984 3.0899519984 3.0899519984 3.0899519984 3.0899519984 
3.0899519984 3.1030096824 3.1030096824 3.0899519984 3.0899519984 3.0899519984 3.0899519984 3.0899519984 3.0899519984 
3.0899519984 3.0899519984 3.0899519984 3.0899519984 3.0899519984 3.0899519984 3.1030096824 3.1030096824 3.0899519984 
3.0899519984 3.0899519984 3.0899519984 3.0899519984 3.0899519984 3.0899519984 3.0899519984 3.0899519984 3.0899519984 
3.1030096824 3.1030096824 3.1030096824 3.0899519984 3.0899519984 3.0899519984 3.0899519984 3.0899519984 3.0899519984 
3.0899519984 3.0899519984 3.0899519984 3.0899519984 3.0899519984 3.1030096824 3.1030096824 3.1030096824 3.0899519984 
3.0899519984 3.0899519984 3.0899519984 3.0899519984 3.0899519984 3.0899519984 3.0899519984 3.0899519984 3.0899519984 
3.0899519984 3.0899519984 3.1030096824 3.1030096824 3.0899519984 3.0899519984 3.0899519984 3.0899519984 3.0899519984 
3.0899519984 3.0899519984 3.0899519984 3.0899519984 3.0899519984 3.1030096824 3.1030096824 3.1030096824 3.0899519984 
3.0899519984 3.0899519984 3.0899519984 3.0899519984 3.0899519984 3.0899519984 3.0899519984 3.0899519984 3.0899519984 
3.1030096824 3.1030096824 3.0899519984 3.0899519984 3.0899519984 3.0899519984 3.0899519984 3.0899519984 3.0899519984 
3.0899519984 3.0899519984 3.0899519984 3.0899519984 3.0899519984 3.1030096824 3.1030096824 3.0899519984 3.0899519984 
3.0899519984 3.0899519984 3.0899519984 3.0899519984 3.0899519984 3.1030096824 3.1030096824 3.1030096824 3.1030096824 
3.0899519984 3.0899519984 3.0899519984 3.0899519984 3.0899519984 3.0899519984 3.1030096824 3.1030096824 3.0899519984 
3.0899519984 3.0899519984 3.0899519984 3.0899519984 3.0899519984 3.1030096824 3.1030096824 3.0899519984 3.0899519984 
3.0899519984 3.0899519984 3.0899519984 3.0899519984 3.1030096824 3.1030096824 3.1030096824 3.1030096824 3.0899519984 
3.0899519984 3.0899519984 3.0899519984 3.0899519984 3.0899519984 3.1030096824 3.1030096824 3.0899519984 3.0899519984 
3.0899519984 3.0899519984 3.0899519984 3.0899519984 3.0899519984 3.0899519984 3.1030096824 3.1030096824 3.1030096824 
3.0899519984 3.0899519984 3.0899519984 3.0899519984 3.0899519984 3.0899519984 3.1030096824 3.1030096824 3.1030096824 
3.0899519984 3.0899519984 3.0899519984 3.0899519984 3.0899519984 3.0899519984 3.1030096824 3.1030096824 3.1030096824 
3.0899519984 3.0899519984 3.0899519984 3.0899519984 3.0899519984 3.0899519984 3.0899519984 3.1030096824 3.1030096824 
3.1030096824 3.0899519984 3.0899519984 3.0899519984 3.0899519984 3.0899519984 3.0899519984 3.1030096824 3.1030096824 
3.1030096824 3.0899519984 3.0899519984 3.0899519984 3.0899519984 3.0899519984 3.0899519984 3.0899519984 3.0899519984 
3.0899519984 3.0899519984 3.1030096824 3.1030096824 3.1030096824 3.0899519984 3.0899519984 3.0899519984 3.0899519984 
3.0899519984 3.0899519984 3.0899519984 3.0899519984 3.0899519984 3.0899519984 3.0899519984 3.0899519984 3.1030096824 
3.1030096824 3.0899519984 3.0899519984 3.0899519984 3.0899519984 3.0899519984 3.0899519984 3.0899519984 3.0899519984 
3.0899519984 3.0899519984 3.1030096824 3.1030096824 3.0899519984 3.0899519984 3.0899519984 3.0899519984 3.0899519984 
3.0899519984 3.0899519984 3.0899519984 3.0899519984 3.0899519984 3.0899519984 3.1030096824 3.1030096824 3.1030096824 
3.0899519984 3.0899519984 3.0899519984 3.0899519984 3.0899519984 3.0899519984 3.0899519984 3.0899519984 3.1030096824 
3.1030096824 3.0899519984 3.0899519984 3.0899519984 3.0899519984 3.0899519984 3.0899519984 3.0899519984 3.1030096824 
3.1160673664 3.1160673664 3.1160673664 3.1160673664 3.1160673664 3.1160673664 3.1030096824 3.0899519984 3.0899519984 
3.0899519984 3.0899519984 3.0899519984 3.0899519984 3.1030096824 3.1160673664 3.1160673664 3.1160673664 3.1030096824 
3.0899519984 3.0899519984 3.0899519984 3.0899519984 3.0899519984 3.0899519984 3.0899519984 3.0899519984 3.1030096824 
3.1160673664 3.1160673664 3.1160673664 3.1160673664 3.1030096824 3.1030096824 3.0899519984 3.0899519984 3.0899519984 
3.0899519984 3.0899519984 3.0899519984 3.1030096824 3.1160673664 3.1160673664 3.1160673664 3.1030096824 3.0899519984 
3.0899519984 3.0899519984 3.0899519984 3.0899519984 3.0899519984 3.0899519984 3.1030096824 3.1030096824 3.1160673664 
3.1160673664 3.1160673664 3.1030096824 3.0899519984 3.0899519984 3.0899519984 3.0899519984 3.0899519984 3.0899519984 
3.0899519984 3.1030096824 3.1160673664 3.1160673664 3.1030096824 3.0899519984 3.0899519984 3.0899519984 3.0899519984 
3.0899519984 3.0899519984 3.0899519984 3.0899519984 3.1030096824 3.1160673664 3.1160673664 3.1160673664 3.1030096824 
3.1030096824 3.0899519984 3.0899519984 3.0899519984 3.0899519984 3.0899519984 3.0899519984 3.1030096824 3.1160673664 
3.1160673664 3.1160673664 3.1030096824 3.0899519984 3.0899519984 3.0899519984 3.0899519984 3.0899519984 3.0899519984 
3.0899519984 3.0899519984 3.1030096824 3.1160673664 3.1160673664 3.1030096824 3.0899519984 3.0899519984 3.0899519984 
3.0899519984 3.0899519984 3.0899519984 3.0899519984 3.1030096824 3.1160673664 3.1160673664 3.1160673664 3.1030096824 
3.0899519984 3.0899519984 3.0899519984 3.0899519984 3.0899519984 3.0899519984 3.0899519984 3.0899519984 3.1030096824 
3.1160673664 3.1160673664 3.1030096824 3.1030096824 3.0899519984 3.0899519984 3.0899519984 3.0899519984 3.0899519984 
3.0899519984 3.1030096824 3.1160673664 3.1160673664 3.1030096824 3.0899519984 3.0899519984 3.0899519984 3.0899519984 
3.0899519984 3.0899519984 3.0899519984 3.1030096824 3.1160673664 3.1160673664 3.1160673664 3.1030096824 3.0899519984 
3.0899519984 3.0899519984 3.0899519984 3.0899519984 3.0899519984 3.0899519984 3.1030096824 3.1160673664 3.1160673664 
3.1291250504 3.1291250504 3.1291250504 3.1160673664 3.1030096824 3.0899519984 3.0899519984 3.0899519984 3.0899519984 
3.0899519984 3.0899519984 3.0899519984 3.1030096824 3.1160673664 3.1291250504 3.1291250504 3.1291250504 3.1291250504 
3.1291250504 3.1160673664 3.1030096824 3.1030096824 3.0899519984 3.0899519984 3.0899519984 3.0899519984 3.0899519984 
3.0768943144 3.0768943144 3.0768943144 3.0768943144 3.0768943144 3.0899519984 3.1030096824 3.1160673664 3.1291250504 
3.1291250504 3.1291250504 3.1160673664 3.1030096824 3.0899519984 3.0899519984 3.0899519984 3.0899519984 3.0899519984 
3.0899519984 3.0768943144 3.0768943144 3.0768943144 3.0768943144 3.0768943144 3.0899519984 3.1030096824 3.1160673664 
3.1291250504 3.1291250504 3.1291250504 3.1160673664 3.1160673664 3.1030096824 3.0899519984 3.0899519984 3.0899519984 
3.0899519984 3.0899519984 3.0768943144 3.0768943144 3.0768943144 3.0768943144 3.0768943144 3.0899519984 3.1030096824 
3.1160673664 3.1291250504 3.1291250504 3.1291250504 3.1160673664 3.1030096824 3.0899519984 3.0899519984 3.0899519984 
3.0899519984 3.0899519984 3.0768943144 3.0768943144 3.0768943144 3.0899519984 3.1030096824 3.1160673664 3.1291250504 
3.1291250504 3.1291250504 3.1160673664 3.1030096824 3.0899519984 3.0899519984 3.0899519984 3.0899519984 3.0899519984 
3.0899519984 3.0768943144 3.0768943144 3.0768943144 3.0899519984 3.1030096824 3.1160673664 3.1160673664 3.1291250504 
3.1291250504 3.1160673664 3.1030096824 3.0899519984 3.0899519984 3.0899519984 3.0899519984 3.0899519984 3.0768943144 
3.0768943144 3.0768943144 3.0768943144 3.0899519984 3.1030096824 3.1160673664 3.1291250504 3.1291250504 3.1160673664 
3.1160673664 3.1030096824 3.0899519984 3.0899519984 3.0899519984 3.0899519984 3.0899519984 3.0899519984 3.0899519984 
3.0768943144 3.0768943144 3.0768943144 3.0899519984 3.0899519984 3.1030096824 3.1030096824 3.1160673664 3.1291250504 
3.1291250504 3.1291250504 3.1160673664 3.1160673664 3.1030096824 3.0899519984 3.0899519984 3.0899519984 3.0899519984 
3.0899519984 3.0899519984 3.0899519984 3.0899519984 3.0768943144 3.0768943144 3.0899519984 3.1030096824 3.1160673664 
3.1291250504 3.1291250504 3.1160673664 3.1160673664 3.1160673664 3.1160673664 3.1030096824 3.1030096824 3.0899519984 
3.0899519984 3.0899519984 3.0768943144 3.0768943144 3.0768943144 3.0768943144 3.0899519984 3.1030096824 3.1160673664 
3.1291250504 3.1421827344 3.1421827344 3.1421827344 3.1421827344 3.1291250504 3.1291250504 3.1160673664 3.1160673664 
3.1160673664 3.1160673664 3.1030096824 3.0899519984 3.0899519984 3.0768943144 3.0768943144 3.0899519984 3.1030096824 
3.1160673664 3.1291250504 3.1291250504 3.1421827344 3.1421827344 3.1421827344 3.1291250504 3.1160673664 3.1030096824 
3.0899519984 3.0899519984 3.0768943144 3.0768943144 3.0768943144 3.0768943144 3.0899519984 3.1030096824 3.1160673664 
3.1291250504 3.1421827344 3.1421827344 3.1421827344 3.1291250504 3.1160673664 3.1160673664 3.1030096824 3.0899519984 
3.0899519984 3.0768943144 3.0768943144 3.0899519984 3.1030096824 3.1160673664 3.1160673664 3.1291250504 3.1421827344 
3.1421827344 3.1421827344 3.1421827344 3.1291250504 3.1160673664 3.1160673664 3.1030096824 3.0899519984 3.0899519984 
3.0899519984 3.0768943144 3.0768943144 3.0768943144 3.0899519984 3.1030096824 3.1160673664 3.1291250504 3.1421827344 
3.1421827344 3.1291250504 3.1160673664 3.1030096824 3.0899519984 3.0899519984 3.0768943144 3.0768943144 3.0768943144 
3.0899519984 3.1030096824 3.1160673664 3.1291250504 3.1291250504 3.1421827344 3.1421827344 3.1421827344 3.1291250504 
3.1160673664 3.1030096824 3.0899519984 3.0899519984 3.0768943144 3.0768943144 3.0899519984 3.1030096824 3.1160673664 
3.1291250504 3.1421827344 3.1421827344 3.1291250504 3.1291250504 3.1160673664 3.1160673664 3.1030096824 3.1030096824 
3.0899519984 3.0899519984 3.0768943144 3.0768943144 3.0899519984 3.1030096824 3.1160673664 3.1291250504 3.1421827344 
3.1421827344 3.1421827344 3.1421827344 3.1291250504 3.1160673664 3.1030096824 3.0899519984 3.0899519984 3.0768943144 
3.0768943144 3.0899519984 3.1030096824 3.1160673664 3.1291250504 3.1291250504 3.1421827344 3.1421827344 3.1291250504 
3.1160673664 3.1030096824 3.0899519984 3.0899519984 3.0768943144 3.0768943144 3.0768943144 3.0768943144 3.0768943144 
3.0899519984 3.0768943144 3.0768943144 3.0768943144 3.0899519984 3.1030096824 3.1160673664 3.1291250504 3.1421827344 