# vtk DataFile Version 4.2
vtk output
ASCII
DATASET POLYDATA
POINTS 9210 float
-3279.11 -4250.34 0 -3283.99 -4233.34 0 184.755 -4242.08 0 
181.022 -4250.25 0 188.797 -4233.24 0 -3288.86 -4216.34 0 
196.572 -4216.24 0 -3293.34 -4200.75 0 -3293.74 -4199.34 0 
204.347 -4199.24 0 -3298.62 -4182.33 0 212.121 -4182.24 0 
-3303.5 -4165.33 0 219.896 -4165.24 0 -3308.38 -4148.33 0 
221.761 -4161.16 0 227.671 -4148.24 0 -3313.26 -4131.33 0 
246.568 -4131.24 0 -3318.13 -4114.33 0 258.764 -4123.65 0 
273.902 -4114.23 0 -3323.01 -4097.33 0 295.767 -4100.63 0 
301.236 -4097.23 0 -3327.89 -4080.33 0 328.57 -4080.23 0 
-3330.33 -4071.83 0 -3332.77 -4063.33 0 332.769 -4077.62 0 
355.904 -4063.23 0 -3337.65 -4046.33 0 369.772 -4054.6 0 
383.238 -4046.23 0 -3342.52 -4029.33 0 406.774 -4031.59 0 
410.307 -4029.23 0 -3347.4 -4012.33 0 424.128 -4012.22 0 
-3352.28 -3995.33 0 430.04 -3995.22 0 -3357.16 -3978.32 0 
433.322 -3978.22 0 -3362.04 -3961.32 0 435.41 -3961.22 0 
-3366.92 -3944.32 0 436.855 -3944.22 0 -3367.32 -3942.9 0 
-3371.79 -3927.32 0 437.915 -3927.22 0 -3376.67 -3910.32 0 
438.783 -3910.22 0 -3381.55 -3893.32 0 438.902 -3893.22 0 
-3386.43 -3876.32 0 439.021 -3876.22 0 -3391.31 -3859.32 0 
439.139 -3859.22 0 -3396.18 -3842.32 0 439.258 -3842.21 0 
-3401.06 -3825.32 0 439.377 -3825.21 0 -3404.32 -3813.98 0 
-3405.94 -3808.32 0 439.496 -3808.21 0 -3410.82 -3791.32 0 
439.614 -3791.21 0 -3415.7 -3774.31 0 439.733 -3774.21 0 
-3420.57 -3757.31 0 439.852 -3757.21 0 -3425.45 -3740.31 0 
439.97 -3740.21 0 -3430.33 -3723.31 0 440.089 -3723.21 0 
-3435.21 -3706.31 0 440.208 -3706.21 0 -3440.09 -3689.31 0 
440.327 -3689.21 0 -3441.31 -3685.05 0 -3444.97 -3672.31 0 
440.445 -3672.2 0 -3449.84 -3655.31 0 440.564 -3655.2 0 
-3454.72 -3638.31 0 440.683 -3638.2 0 -3459.6 -3621.31 0 
440.802 -3621.2 0 -3470.92 -3604.31 0 440.92 -3604.2 0 
3588.89 -3605.15 0 3586.24 -3604.11 0 3589.99 -3604.11 0 
-3478.31 -3593.12 0 -3482.15 -3587.3 0 441.039 -3587.2 0 
3551.88 -3596.66 0 3544.43 -3587.12 0 3608.12 -3587.11 0 
-3493.37 -3570.3 0 441.158 -3570.2 0 3531.16 -3570.11 0 
3625.89 -3570.46 0 3626.26 -3570.11 0 -3504.6 -3553.3 0 
441.276 -3553.2 0 3517.88 -3553.11 0 3644.39 -3553.11 0 
-3515.3 -3537.1 0 -3515.83 -3536.3 0 441.395 -3536.2 0 
3514.89 -3549.28 0 3504.61 -3536.11 0 3662.52 -3536.11 0 
-3527.06 -3519.3 0 441.514 -3519.2 0 3491.33 -3519.11 0 
3662.89 -3535.76 0 3680.66 -3519.11 0 -3538.29 -3502.3 0 
441.633 -3502.19 0 3478.06 -3502.11 0 3698.79 -3502.11 0 
-3549.51 -3485.3 0 441.751 -3485.19 0 3477.89 -3501.89 0 
3464.78 -3485.11 0 3699.89 -3501.07 0 3716.92 -3485.1 0 
-3552.3 -3481.08 0 -3560.74 -3468.3 0 441.87 -3468.19 0 
3451.51 -3468.11 0 3735.06 -3468.1 0 -3571.97 -3451.3 0 
441.989 -3451.19 0 3440.89 -3454.51 0 3438.23 -3451.11 0 
3736.9 -3466.38 0 3753.19 -3451.1 0 -3583.2 -3434.3 0 
442.108 -3434.19 0 3424.96 -3434.11 0 3771.33 -3434.1 0 
-3589.3 -3425.06 0 -3594.43 -3417.3 0 442.226 -3417.19 0 
3411.68 -3417.11 0 3773.9 -3431.69 0 3789.46 -3417.1 0 
-3605.65 -3400.3 0 442.345 -3400.19 0 3403.89 -3407.13 0 
3398.41 -3400.11 0 3807.59 -3400.1 0 -3616.88 -3383.3 0 
442.464 -3383.19 0 3385.13 -3383.11 0 3810.9 -3396.99 0 
3825.73 -3383.1 0 -3626.3 -3369.04 0 -3628.11 -3366.3 0 
442.582 -3366.19 0 3371.86 -3366.11 0 3843.86 -3366.09 0 
-3639.34 -3349.3 0 442.701 -3349.19 0 3366.89 -3359.75 0 
3358.58 -3349.11 0 3847.91 -3362.3 0 3862 -3349.09 0 
-3650.56 -3332.29 0 442.82 -3332.18 0 3345.31 -3332.11 0 
3880.13 -3332.09 0 -3661.79 -3315.29 0 442.939 -3315.18 0 
3332.03 -3315.1 0 3884.91 -3327.61 0 3898.26 -3315.09 0 
-3663.29 -3313.02 0 -3673.02 -3298.29 0 443.057 -3298.18 0 
3329.9 -3312.37 0 3318.76 -3298.1 0 3916.4 -3298.09 0 
-3684.25 -3281.29 0 443.176 -3281.18 0 3305.48 -3281.1 0 
3921.91 -3292.92 0 3934.53 -3281.09 0 -3695.48 -3264.29 0 
443.295 -3264.18 0 3292.9 -3264.98 0 3292.21 -3264.1 0 
3952.67 -3264.09 0 -3700.29 -3257 0 -3706.7 -3247.29 0 
443.414 -3247.18 0 3278.93 -3247.1 0 3958.92 -3258.23 0 
3970.8 -3247.08 0 -3717.93 -3230.29 0 443.532 -3230.18 0 
3265.66 -3230.1 0 3988.93 -3230.08 0 -3729.16 -3213.29 0 
443.651 -3213.18 0 3255.9 -3217.6 0 3252.38 -3213.1 0 
3995.92 -3223.53 0 4007.07 -3213.08 0 -3737.29 -3200.98 0 
-3740.39 -3196.29 0 443.77 -3196.18 0 3239.11 -3196.1 0 
4025.2 -3196.08 0 -3751.62 -3179.29 0 443.824 -3188.34 0 
443.888 -3179.18 0 3225.83 -3179.1 0 4032.92 -3188.84 0 
4044.49 -3179.08 0 -3762.84 -3162.29 0 444.007 -3162.17 0 
3218.9 -3170.22 0 3212.56 -3162.1 0 4061.47 -3162.08 0 
-3774.07 -3145.29 0 444.126 -3145.17 0 3199.29 -3145.1 0 
4069.92 -3154.15 0 4088.1 -3145.07 0 -3774.29 -3144.96 0 
-3785.3 -3128.29 0 444.245 -3128.17 0 3186.01 -3128.1 0 
4104.65 -3128.07 0 -3796.53 -3111.29 0 444.363 -3111.17 0 
3181.9 -3122.84 0 3172.74 -3111.1 0 4106.93 -3125.19 0 
4143.93 -3116.94 0 4173.48 -3111.07 0 -3807.76 -3094.28 0 
444.482 -3094.17 0 3159.46 -3094.1 0 4180.93 -3109.59 0 
4217.93 -3102.24 0 4254.93 -3094.89 0 4259.07 -3094.07 0 
-3811.28 -3088.94 0 -3818.98 -3077.28 0 444.601 -3077.17 0 
3146.19 -3077.1 0 4291.93 -3087.54 0 4328.94 -3080.19 0 
4344.66 -3077.06 0 -3830.21 -3060.28 0 444.72 -3060.17 0 
3144.9 -3075.45 0 3132.91 -3060.1 0 4365.94 -3072.84 0 
4402.94 -3065.49 0 4430.25 -3060.06 0 -3841.44 -3043.28 0 
444.838 -3043.17 0 3119.64 -3043.09 0 4439.94 -3058.14 0 
4476.94 -3050.79 0 4485.65 -3043.06 0 -3848.28 -3032.92 0 
-3852.67 -3026.28 0 444.957 -3026.17 0 3107.91 -3028.07 0 
3106.36 -3026.09 0 4496.22 -3026.06 0 -3863.89 -3009.28 0 
444.976 -3009.17 0 3093.09 -3009.09 0 4502 -3009.06 0 
-3875.12 -2992.28 0 444.936 -2992.16 0 3079.81 -2992.09 0 
4503.4 -2992.05 0 -3885.28 -2976.9 0 -3886.35 -2975.28 0 
444.897 -2975.16 0 3070.91 -2980.69 0 3066.54 -2975.09 0 
4504.79 -2975.05 0 -3897.58 -2958.28 0 444.857 -2958.16 0 
3053.26 -2958.09 0 4506.19 -2958.05 0 -3908.81 -2941.28 0 
444.818 -2941.16 0 3039.99 -2941.09 0 4507.59 -2941.05 0 
-3920.03 -2924.28 0 444.778 -2924.16 0 3033.91 -2933.31 0 
3026.71 -2924.09 0 4508.98 -2924.05 0 -3922.28 -2920.88 0 
-3931.26 -2907.28 0 444.739 -2907.16 0 3013.44 -2907.09 0 
4510.38 -2907.05 0 -3942.49 -2890.28 0 444.699 -2890.16 0 
3000.16 -2890.09 0 4511.77 -2890.05 0 -3953.72 -2873.28 0 
444.66 -2873.16 0 2996.91 -2885.93 0 2986.89 -2873.09 0 
4513.17 -2873.05 0 -3959.28 -2864.86 0 -3964.95 -2856.28 0 
444.62 -2856.16 0 2973.61 -2856.09 0 4513.95 -2863.48 0 
4514.56 -2856.05 0 -3976.17 -2839.27 0 444.581 -2839.16 0 
2960.34 -2839.09 0 4515.96 -2839.04 0 -3987.4 -2822.27 0 
444.541 -2822.15 0 2959.91 -2838.05 0 2956.22 -2822.09 0 
4517.36 -2822.04 0 -3996.27 -2808.84 0 -3998.18 -2805.27 0 
444.502 -2805.15 0 2959.91 -2808.33 0 2960.79 -2805.08 0 
4518.75 -2805.04 0 -4005.13 -2788.27 0 444.462 -2788.15 0 
2965.35 -2788.08 0 4520.15 -2788.04 0 -4011.45 -2771.27 0 
444.423 -2771.15 0 2969.92 -2771.08 0 4521.54 -2771.04 0 
-4017.77 -2754.27 0 444.383 -2754.15 0 2974.48 -2754.08 0 
4522.94 -2754.04 0 -4024.08 -2737.27 0 444.344 -2737.15 0 
2979.05 -2737.08 0 4524.33 -2737.04 0 -4030.4 -2720.27 0 
444.304 -2720.15 0 2983.62 -2720.08 0 4525.73 -2720.04 0 
-4033.27 -2712.56 0 -4036.72 -2703.27 0 444.265 -2703.15 0 
2988.18 -2703.08 0 4538.09 -2703.04 0 -4043.04 -2686.27 0 
444.225 -2686.15 0 2992.75 -2686.08 0 4550.96 -2689.15 0 
4553.86 -2686.03 0 -4049.36 -2669.27 0 444.186 -2669.15 0 
2996.92 -2670.52 0 2997.31 -2669.08 0 4569.62 -2669.03 0 
-4055.68 -2652.27 0 444.146 -2652.14 0 3001.88 -2652.07 0 
4585.39 -2652.03 0 -4062 -2635.26 0 444.107 -2635.14 0 
3006.44 -2635.07 0 4587.97 -2649.25 0 4601.16 -2635.03 0 
-4068.32 -2618.26 0 444.067 -2618.14 0 3011.01 -2618.07 0 
4616.93 -2618.03 0 -4070.26 -2613.02 0 -4074.63 -2601.26 0 
444.028 -2601.14 0 3015.57 -2601.07 0 4624.97 -2609.36 0 
4632.7 -2601.03 0 -4080.95 -2584.26 0 443.988 -2584.14 0 
3020.14 -2584.07 0 4648.46 -2584.03 0 -4087.27 -2567.26 0 
443.949 -2567.14 0 3024.71 -2567.07 0 4661.98 -2569.46 0 
4664.23 -2567.02 0 -4093.59 -2550.26 0 443.909 -2550.14 0 
3029.27 -2550.07 0 4680 -2550.02 0 -4099.91 -2533.26 0 
443.87 -2533.14 0 3033.84 -2533.07 0 4695.77 -2533.02 0 
-4106.23 -2516.26 0 443.83 -2516.14 0 443.863 -2530.29 0 
3033.93 -2532.71 0 3038.4 -2516.07 0 4698.98 -2529.56 0 
4711.54 -2516.02 0 -4107.26 -2513.49 0 -4112.55 -2499.26 0 
443.791 -2499.14 0 3042.97 -2499.06 0 4727.3 -2499.02 0 
-4118.87 -2482.26 0 443.758 -2482.13 0 3047.53 -2482.06 0 
4735.98 -2489.66 0 4743.07 -2482.02 0 -4125.18 -2465.26 0 
443.73 -2465.13 0 3052.1 -2465.06 0 4758.84 -2465.02 0 
-4131.5 -2448.26 0 443.705 -2448.13 0 3052.8 -2448.06 0 
4772.98 -2449.77 0 4774.61 -2448.01 0 -4137.82 -2431.25 0 
443.683 -2431.13 0 3050.54 -2431.06 0 4790.38 -2431.01 0 
-4144.14 -2414.25 0 443.664 -2414.13 0 3046.33 -2414.06 0 
4806.15 -2414.01 0 -4144.25 -2413.95 0 -4150.46 -2397.25 0 
443.87 -2411.91 0 445.61 -2397.13 0 3042.12 -2397.06 0 
4809.99 -2409.87 0 4821.91 -2397.01 0 -4156.78 -2380.25 0 
447.795 -2380.13 0 3037.91 -2380.06 0 4837.68 -2380.01 0 
-4163.1 -2363.25 0 449.721 -2363.13 0 3033.94 -2364.04 0 
3033.7 -2363.06 0 4846.99 -2369.97 0 4853.45 -2363.01 0 
-4169.41 -2346.25 0 451.432 -2346.13 0 3029.49 -2346.06 0 
4869.22 -2346.01 0 -4175.73 -2329.25 0 452.962 -2329.12 0 
3025.28 -2329.06 0 4884 -2330.07 0 4884.99 -2329 0 
-4181.25 -2314.41 0 -4182.05 -2312.25 0 454.776 -2312.12 0 
3021.07 -2312.05 0 4900.75 -2312 0 -4188.37 -2295.25 0 
456.686 -2295.12 0 3016.86 -2295.05 0 4916.52 -2295 0 
-4194.69 -2278.25 0 458.596 -2278.12 0 3012.65 -2278.05 0 
4921 -2290.18 0 4932.29 -2278 0 -4201.01 -2261.25 0 
462.114 -2261.12 0 3008.44 -2261.05 0 4948.06 -2261 0 
-4207.33 -2244.25 0 467.264 -2244.12 0 3004.23 -2244.05 0 
4958 -2250.28 0 4963.83 -2244 0 -4213.65 -2227.24 0 
472.413 -2227.12 0 3000.02 -2227.05 0 4979.6 -2227 0 
-4218.24 -2214.87 0 -4219.96 -2210.24 0 477.563 -2210.12 0 
2996.95 -2214.67 0 2995.81 -2210.05 0 4995 -2210.38 0 
4995.36 -2210 0 -4226.28 -2193.24 0 474.976 -2193.12 0 
2991.59 -2193.05 0 5011.13 -2192.99 0 -4232.6 -2176.24 0 
472.964 -2176.12 0 2987.38 -2176.05 0 5026.9 -2175.99 0 
[...]
POINT_DATA 9210
SCALARS Pressure double
LOOKUP_TABLE default
3.0899519984 3.0899519984 3.0899519984 3.0899519984 3.0899519984 3.0899519984 3.0899519984 3.0899519984 3.0899519984 
3.0899519984 3.0899519984 3.0899519984 3.0899519984 3.0899519984 3.0899519984 3.0899519984 3.0899519984 3.0899519984 
3.0899519984 3.0899519984 3.0899519984 3.0899519984 3.0899519984 3.0899519984 3.0899519984 3.0899519984 3.0899519984 
3.0899519984 3.0899519984 3.0899519984 3.0899519984 3.0899519984 3.0899519984 3.0899519984 3.0899519984 3.0899519984 
3.0899519984 3.0899519984 3.0899519984 3.0899519984 3.0899519984 3.0899519984 3.0899519984 3.0899519984 3.0899519984 
3.0899519984 3.0899519984 3.0899519984 3.0899519984 3.0899519984 3.0899519984 3.0899519984 3.0899519984 3.0899519984 
3.0899519984 3.0899519984 3.0899519984 3.0899519984 3.0899519984 3.0899519984 3.0899519984 3.0899519984 3.0899519984 
3.0899519984 3.0899519984 3.0899519984 3.0899519984 3.0899519984 3.0899519984 3.0899519984 3.0899519984 3.0899519984 
3.0899519984 3.0899519984 3.0899519984 3.0899519984 3.0899519984 3.0899519984 3.0899519984 3.0899519984 3.0899519984 
3.0899519984 3.0899519984 3.0899519984 3.0899519984 3.0899519984 3.0899519984 3.0899519984 3.0899519984 3.0899519984 
3.0899519984 3.0899519984 3.0899519984 3.0899519984 3.0899519984 3.0899519984 3.0899519984 3.0899519984 3.0899519984 
3.0899519984 3.0899519984 3.0899519984 3.0899519984 3.0899519984 3.0899519984 3.0899519984 3.0899519984 3.0899519984 
3.0899519984 3.0899519984 3.0899519984 3.0899519984 3.0899519984 3.0899519984 3.0899519984 3.0899519984 3.0899519984 
3.0899519984 3.0899519984 3.0899519984 3.0899519984 3.0899519984 3.0899519984 3.0899519984 3.0899519984 3.0899519984 
3.0899519984 3.0899519984 3.0899519984 3.0899519984 3.0899519984 3.0899519984 3.0899519984 3.0899519984 3.0899519984 
3.0899519984 3.0899519984 3.0899519984 3.0899519984 3.0899519984 3.0899519984 3.0899519984 3.0899519984 3.0899519984 
3.0899519984 3.0899519984 3.0899519984 3.0899519984 3.0899519984 3.0899519984 3.0899519984 3.0899519984 3.0899519984 
3.0899519984 3.0899519984 3.0899519984 3.0899519984 3.0899519984 3.0899519984 3.0899519984 3.0899519984 3.0899519984 
3.0899519984 3.0899519984 3.0899519984 3.0899519984 3.0899519984 3.0899519984 3.0899519984 3.0899519984 3.0899519984 
3.0899519984 3.0899519984 3.0899519984 3.0899519984 3.0899519984 3.0899519984 3.0899519984 3.0899519984 3.0899519984 
3.0899519984 3.0899519984 3.0899519984 3.0899519984 3.0899519984 3.0899519984 3.0899519984 3.0899519984 3.0899519984 
3.0899519984 3.0899519984 3.0899519984 3.0899519984 3.0899519984 3.0899519984 3.0899519984 3.0899519984 3.0899519984 
3.0899519984 3.0899519984 3.0899519984 3.0899519984 3.0899519984 3.0899519984 3.0899519984 3.0899519984 3.0899519984 
3.0899519984 3.0899519984 3.0899519984 3.0899519984 3.0899519984 3.0899519984 3.0899519984 3.0899519984 3.0899519984 
3.0899519984 3.0899519984 3.0899519984 3.0899519984 3.0899519984 3.0899519984 3.0899519984 3.0899519984 3.0899519984 
3.0899519984 3.0899519984 3.0899519984 3.0899519984 3.0899519984 3.0899519984 3.0899519984 3.0899519984 3.0899519984 
3.0899519984 3.0899519984 3.0899519984 3.0899519984 3.0899519984 3.0899519984 3.0899519984 3.0899519984 3.0899519984 
3.0899519984 3.0899519984 3.0899519984 3.0899519984 3.0899519984 3.0899519984 3.0899519984 3.0899519984 3.0899519984 
3.0899519984 3.0899519984 3.0899519984 3.0899519984 3.0899519984 3.0899519984 3.0899519984 3.0899519984 3.0899519984 
3.0899519984 3.0899519984 3.0899519984 3.0899519984 3.0899519984 3.0899519984 3.0899519984 3.0899519984 3.0899519984 
3.0899519984 3.0899519984 3.0899519984 3.0899519984 3.0899519984 3.0899519984 3.0899519984 3.0899519984 3.0899519984 
3.0899519984 3.0899519984 3.0899519984 3.0899519984 3.0899519984 3.0899519984 3.0899519984 3.0899519984 3.0899519984 
3.0899519984 3.0899519984 3.0899519984 3.0899519984 3.0899519984 3.0899519984 3.0899519984 3.0899519984 3.0899519984 
3.0899519984 3.0899519984 3.0899519984 3.0899519984 3.0899519984 3.0899519984 3.0899519984 3.0899519984 3.0899519984 
3.0899519984 3.0899519984 3.0899519984 3.0899519984 3.0899519984 3.0899519984 3.0899519984 3.0899519984 3.0899519984 
3.0899519984 3.0899519984 3.0899519984 3.0899519984 3.0899519984 3.0899519984 3.0899519984 3.0899519984 3.0899519984 
3.0899519984 3.0899519984 3.0899519984 3.0899519984 3.0899519984 3.0899519984 3.0899519984 3.0899519984 3.0899519984 
3.0899519984 3.0899519984 3.0899519984 3.0899519984 3.0899519984 3.0899519984 3.0899519984 3.0899519984 3.0899519984 
3.0899519984 3.0899519984 3.0899519984 3.0899519984 3.0899519984 3.0899519984 3.0899519984 3.0899519984 3.0899519984 
3.0899519984 3.0899519984 3.0899519984 3.0899519984 3.0899519984 3.0899519984 3.0899519984 3.0899519984 3.0899519984 
3.0899519984 3.0899519984 3.0899519984 3.0899519984 3.0899519984 3.0899519984 3.0899519984 3.0899519984 3.0899519984 
3.0899519984 3.0899519984 3.0899519984 3.0899519984 3.0899519984 3.0899519984 3.0899519984 3.0899519984 3.0899519984 
3.0899519984 3.0899519984 3.0899519984 3.0899519984 3.0899519984 3.0899519984 3.0899519984 3.0899519984 3.0899519984 
3.0899519984 3.0899519984 3.0899519984 3.0899519984 3.0899519984 3.0899519984 3.0899519984 3.0899519984 3.0899519984 
3.0899519984 3.0899519984 3.0899519984 3.0899519984 3.0899519984 3.0899519984 3.0899519984 3.0899519984 3.0899519984 
3.0899519984 3.0899519984 3.0899519984 3.0899519984 3.0899519984 3.0899519984 3.0899519984 3.0899519984 3.0899519984 
3.0899519984 3.0899519984 3.0899519984 3.0899519984 3.0899519984 3.0899519984 3.0899519984 3.0899519984 3.0899519984 
3.0899519984 3.0899519984 3.0899519984 3.0899519984 3.0899519984 3.0899519984 3.0899519984 3.0899519984 3.0899519984 
3.0899519984 3.0899519984 3.0899519984 3.0899519984 3.0899519984 3.0899519984 3.0899519984 3.0899519984 3.0899519984 
3.0899519984 3.0899519984 3.0899519984 3.0899519984 3.0899519984 3.0899519984 3.0899519984 3.0899519984 3.0899519984 
3.0899519984 3.0899519984 3.0899519984 3.0899519984 3.0899519984 3.0899519984 3.0899519984 3.0899519984 3.0899519984 
3.0899519984 3.0899519984 3.0899519984 3.0899519984 3.0899519984 3.0899519984 3.0899519984 3.0899519984 3.0899519984 
3.0899519984 3.0899519984 3.0899519984 3.0899519984 3.0899519984 3.0899519984 3.0899519984 3.0899519984 3.0899519984 
3.0899519984 3.0899519984 3.0899519984 3.0899519984 3.0899519984 3.0899519984 3.0899519984 3.0899519984 3.0899519984 
3.0899519984 3.0899519984 3.0899519984 3.0899519984 3.0899519984 3.0899519984 3.0899519984 3.0899519984 3.0899519984 
3.0899519984 3.0899519984 3.0899519984 3.0899519984 3.0899519984 3.0899519984 3.0899519984 3.0899519984 3.0899519984 
3.0899519984 3.0899519984 3.0899519984 3.0899519984 3.0899519984 3.0899519984 3.0899519984 3.0899519984 3.0899519984 
3.0899519984 3.0899519984 3.0899519984 3.0899519984 3.0899519984 3.0899519984 3.0899519984 3.0899519984 3.0899519984 
3.0899519984 3.0899519984 3.0899519984 3.0899519984 3.0899519984 3.0899519984 3.0899519984 3.0899519984 3.0899519984 
3.0899519984 3.0899519984 3.0899519984 3.0899519984 3.0899519984 3.0899519984 3.0899519984 3.0899519984 3.0899519984 
3.0899519984 3.0899519984 3.0899519984 3.0899519984 3.0899519984 3.0899519984 3.0899519984 3.0899519984 3.0899519984 
3.0899519984 3.0899519984 3.0899519984 3.0899519984 3.0899519984 3.0899519984 3.0899519984 3.0899519984 3.0899519984 
3.0899519984 3.0899519984 3.0899519984 3.0899519984 3.0899519984 3.0899519984 3.0899519984 3.0899519984 3.0899519984 
3.1030096824 3.1030096824 3.1030096824 3.1030096824 3.1030096824 3.1030096824 3.1030096824 3.0899519984 3.0899519984 
3.0899519984 3.0899519984 3.1030096824 3.1030096824 3.1030096824 3.1030096824 3.1030096824 3.1030096824 3.0899519984 
3.0899519984 3.0899519984 3.0899519984 3.1030096824 3.1030096824 3.1030096824 3.1030096824 3.0899519984 3.0899519984 
3.0899519984 3.0899519984 3.0899519984 3.1030096824 3.1030096824 3.1030096824 3.1030096824 3.1030096824 3.1030096824 
3.0899519984 3.0899519984 3.0899519984 3.0899519984 3.1030096824 3.1030096824 3.1030096824 3.0899519984 3.0899519984 
3.0899519984 3.0899519984 3.1030096824 3.1030096824 3.1030096824 3.0899519984 3.0899519984 3.0899519984 3.0899519984 
3.1030096824 3.1030096824 3.1030096824 3.0899519984 3.0899519984 3.0899519984 3.0899519984 3.0899519984 3.1030096824 
3.1030096824 3.1030096824 3.0899519984 3.0899519984 3.0899519984 3.0899519984 3.0899519984 3.1030096824 3.1030096824 
3.1030096824 3.0899519984 3.0899519984 3.0899519984 3.0899519984 3.1030096824 3.1030096824 3.0899519984 3.0899519984 
3.0899519984 3.0899519984 3.1030096824 3.1030096824 3.1030096824 3.0899519984 3.0899519984 3.0899519984 3.0899519984 
3.0899519984 3.0899519984 3.0899519984 3.0899519984 3.0899519984 3.1030096824 3.1030096824 3.1030096824 3.0899519984 
3.0899519984 3.0899519984 3.0899519984 3.0899519984 3.0899519984 3.0899519984 3.0899519984 3.0899519984 3.0899519984 
3.1030096824 3.1030096824 3.0899519984 3.0899519984 3.0899519984 3.0899519984 3.0899519984 3.0899519984 3.0899519984 
3.0899519984 3.0899519984 3.1030096824 3.1030096824 3.1030096824 3.0899519984 3.0899519984 3.0899519984 3.0899519984 
3.0899519984 3.0899519984 3.0899519984 3.0899519984 3.0899519984 3.1030096824 3.1030096824 3.0899519984 3.0899519984 
3.0899519984 3.0899519984 3.0899519984 3.0899519984 3.0899519984 3.0899519984 3.0899519984 3.1030096824 3.1030096824 
3.1030096824 3.0899519984 3.0899519984 3.0899519984 3.0899519984 3.0899519984 3.0899519984 3.1030096824 3.1030096824 
3.1030096824 3.0899519984 3.0899519984 3.0899519984 3.0899519984 3.0899519984 3.0899519984 3.0899519984 3.1030096824 
3.1030096824 3.0899519984 3.0899519984 3.0899519984 3.0899519984 3.0899519984 3.0899519984 3.0899519984 3.1030096824 
3.1030096824 3.0899519984 3.0899519984 3.0899519984 3.0899519984 3.0899519984 3.0899519984 3.0899519984 3.0899519984 
3.1030096824 3.1030096824 3.1030096824 3.0899519984 3.0899519984 3.0899519984 3.0899519984 3.0899519984 3.0899519984 
3.0899519984 3.1030096824 3.1030096824 3.1030096824 3.0899519984 3.0899519984 3.0899519984 3.0899519984 3.0899519984 
3.0899519984 3.1030096824 3.1030096824 3.0899519984 3.0899519984 3.0899519984 3.0899519984 3.0899519984 3.0899519984 
3.0899519984 3.0899519984 3.0899519984 3.1030096824 3.1030096824 3.0899519984 3.0899519984 3.0899519984 3.0899519984 
3.0899519984 3.0899519984 3.0899519984 3.1030096824 3.1030096824 3.0899519984 3.0899519984 3.0899519984 3.0899519984 
3.0899519984 3.0899519984 3.0899519984 3.1030096824 3.1030096824 3.1030096824 3.0899519984 3.0899519984 3.0899519984 
3.0899519984 3.0899519984 3.0899519984 3.0899519984 3.1030096824 3.1030096824 3.0899519984 3.0899519984 3.0899519984 
3.0899519984 3.0899519984 3.0899519984 3.0899519984 3.1030096824 3.1030096824 3.1030096824 3.0899519984 3.0899519984 
3.0899519984 3.0899519984 3.0899519984 3.0899519984 3.0899519984 3.1030096824 3.1030096824 3.0899519984 3.0899519984 
3.0899519984 3.0899519984 3.0899519984 3.0899519984 3.0899519984 3.0899519984 3.1030096824 3.1030096824 3.0899519984 
3.0899519984 3.0899519984 3.0899519984 3.0899519984 3.0899519984 3.0899519984 3.0899519984 3.1030096824 3.1030096824 
3.1030096824 3.0899519984 3.0899519984 3.0899519984 3.0899519984 3.0899519984 3.0899519984 3.0899519984 3.0899519984 
3.1030096824 3.1030096824 3.0899519984 3.0899519984 3.0899519984 3.0899519984 3.0899519984 3.0899519984 3.1030096824 
3.1030096824 3.0899519984 3.0899519984 3.0899519984 3.0899519984 3.0899519984 3.0899519984 3.0899519984 3.1030096824 
3.1030096824 3.1030096824 3.0899519984 3.0899519984 3.0899519984 3.0899519984 3.0899519984 3.0899519984 3.0899519984 
3.1030096824 3.1030096824 3.0899519984 3.0899519984 3.0899519984 3.0899519984 3.0899519984 3.0899519984 3.0899519984 
3.0899519984 3.0899519984 3.1030096824 3.1030096824 3.1030096824 3.0899519984 3.0899519984 3.0899519984 3.0899519984 
3.0899519984 3.0899519984 3.0899519984 3.0899519984 3.0899519984 3.0899519984 3.1030096824 3.1030096824 3.0899519984 
3.0899519984 3.0899519984 3.0899519984 3.0899519984 3.0899519984 3.0899519984 3.0899519984 3.0899519984 3.0899519984 
3.0899519984 3.1030096824 3.1030096824 3.0899519984 3.0899519984 3.0899519984 3.0899519984 3.0899519984 3.0899519984 
3.0899519984 3.0899519984 3.0899519984 3.0899519984 3.0899519984 3.0899519984 3.1030096824 3.1030096824 3.1030096824 
3.0899519984 3.0899519984 3.0899519984 3.0899519984 3.0899519984 3.0899519984 3.0899519984 3.0899519984 3.0899519984 
3.1030096824 3.1030096824 3.1030096824 3.0899519984 3.0899519984 3.0899519984 3.0899519984 3.0899519984 3.0899519984 
3.0899519984 3.1030096824 3.1030096824 3.0899519984 3.0899519984 3.0899519984 3.0899519984 3.0899519984 3.0899519984 
3.0899519984 3.0899519984 3.1030096824 3.1030096824 3.0899519984 3.0899519984 3.0899519984 3.0899519984 3.0899519984 
3.0768943144 3.0768943144 3.0768943144 3.0899519984 3.1030096824 3.1030096824 3.0899519984 3.0899519984 3.0899519984 
3.0899519984 3.0899519984 3.0899519984 3.0899519984 3.0768943144 3.0768943144 3.0768943144 3.0768943144 3.0768943144 
3.0768943144 3.0768943144 3.0899519984 3.0899519984 3.1030096824 3.1030096824 3.1160673664 3.1160673664 3.1160673664 
3.1030096824 3.0899519984 3.0899519984 3.0899519984 3.0899519984 3.0899519984 3.0768943144 3.0768943144 3.0768943144 
3.0768943144 3.0768943144 3.0768943144 3.0768943144 3.0899519984 3.1030096824 3.1160673664 3.1160673664 3.1160673664 
3.1160673664 3.1160673664 3.1030096824 3.0899519984 3.0899519984 3.0899519984 3.0899519984 3.0899519984 3.0899519984 
3.0768943144 3.0768943144 3.0768943144 3.0899519984 3.1030096824 3.1160673664 3.1160673664 3.1160673664 3.1160673664 
3.1160673664 3.1030096824 3.0899519984 3.0899519984 3.0899519984 3.0899519984 3.0899519984 3.0899519984 3.0768943144 
3.0768943144 3.0768943144 3.0899519984 3.1030096824 3.1160673664 3.1160673664 3.1160673664 3.1160673664 3.1030096824 
3.1030096824 3.0899519984 3.0899519984 3.0899519984 3.0899519984 3.0899519984 3.0899519984 3.0899519984 3.0768943144 
3.0768943144 3.0768943144 3.0899519984 3.0899519984 3.1030096824 3.1160673664 3.1160673664 3.1160673664 3.1030096824 
3.0899519984 3.0899519984 3.0899519984 3.0899519984 3.0899519984 3.0899519984 3.0899519984 3.0768943144 3.0768943144 
3.0768943144 3.0899519984 3.1030096824 3.1030096824 3.1160673664 3.1160673664 3.1160673664 3.1030096824 3.0899519984 
3.0899519984 3.0899519984 3.0899519984 3.0899519984 3.0768943144 3.0768943144 3.0768943144 3.0899519984 3.1030096824 
3.1160673664 3.1160673664 3.1160673664 3.1030096824 3.0899519984 3.0899519984 3.0899519984 3.0899519984 3.0899519984 
3.0899519984 3.0899519984 3.0768943144 3.0768943144 3.0768943144 3.0899519984 3.1030096824 3.1160673664 3.1160673664 
3.1160673664 3.1030096824 3.0899519984 3.0899519984 3.0899519984 3.0899519984 3.0899519984 3.0899519984 3.0768943144 
3.0768943144 3.0768943144 3.0899519984 3.1030096824 3.1160673664 3.1160673664 3.1160673664 3.1030096824 3.0899519984 
3.0899519984 3.0899519984 3.0899519984 3.0899519984 3.0768943144 3.0768943144 3.0768943144 3.0768943144 3.0899519984 
3.1030096824 3.1030096824 3.1160673664 3.1160673664 3.1030096824 3.0899519984 3.0899519984 3.0899519984 3.0899519984 
3.0899519984 3.0899519984 3.0899519984 3.0768943144 3.0768943144 3.0899519984 3.1030096824 3.1160673664 3.1160673664 
3.1160673664 3.1160673664 3.1030096824 3.1030096824 3.0899519984 3.0899519984 3.0899519984 3.0899519984 3.0899519984 
3.0899519984 3.0768943144 3.0768943144 3.0768943144 3.0899519984 3.1030096824 3.1160673664 3.1160673664 3.1030096824 
3.0899519984 3.0899519984 3.0899519984 3.0899519984 3.0899519984 3.0899519984 3.0768943144 3.0768943144 3.0899519984 
3.1030096824 3.1160673664 3.1160673664 3.1160673664 3.1160673664 3.1030096824 3.0899519984 3.0899519984 3.0899519984 
3.0899519984 3.0899519984 3.0899519984 3.0768943144 3.0768943144 3.0768943144 3.0899519984 3.0899519984 3.1030096824 
3.1160673664 3.1160673664 3.1030096824 3.0899519984 3.0899519984 3.0899519984 3.0899519984 3.0899519984 3.0768943144 
3.0768943144 3.0768943144 3.0899519984 3.1030096824 3.1160673664 3.1160673664 3.1160673664 3.1030096824 3.0899519984 
3.0899519984 3.0899519984 3.0899519984 3.0899519984 3.0899519984 3.0899519984 3.0899519984 3.0768943144 3.0768943144 
3.0768943144 3.0899519984 3.1030096824 3.1160673664 3.1160673664 3.1030096824 3.0899519984 3.0899519984 3.0899519984 
3.0768943144 3.0768943144 3.0768943144 3.0899519984 3.1030096824 3.1030096824 3.1160673664 3.1160673664 3.1160673664 
3.1030096824 3.0899519984 3.0899519984 3.0768943144 3.0768943144 3.0899519984 3.1030096824 3.1160673664 3.1160673664 
3.1160673664 3.1030096824 3.1030096824 3.0899519984 3.0899519984 3.0768943144 3.0768943144 3.0768943144 3.0899519984 
3.1030096824 3.1160673664 3.1160673664 3.1030096824 3.0899519984 3.0899519984 3.0768943144 3.0768943144 3.0768943144 
3.0899519984 3.1030096824 3.1160673664 3.1160673664 3.1160673664 3.1030096824 3.0899519984 3.0899519984 3.0768943144 
3.0768943144 3.0899519984 3.1030096824 3.1030096824 3.1160673664 3.1160673664 3.1030096824 3.0899519984 3.0899519984 
3.0768943144 3.0768943144 3.0899519984 3.1030096824 3.1160673664 3.1160673664 3.1160673664 3.1030096824 3.0899519984 
3.0899519984 3.0768943144 3.0768943144 3.0899519984 3.1030096824 3.1160673664 3.1160673664 3.1160673664 3.1030096824 
3.0899519984 3.0899519984 3.0768943144 3.0768943144 3.0899519984 3.1030096824 3.1160673664 3.1160673664 3.1030096824 
3.1030096824 3.0899519984 3.0899519984 3.0768943144 3.0768943144 3.0768943144 3.0899519984 3.1030096824 3.1160673664 
3.1160673664 3.1030096824 3.0899519984 3.0899519984 3.0768943144 3.0768943144 3.0768943144 3.0899519984 3.1030096824 
3.1030096824 3.1160673664 3.1160673664 3.1291250504 3.1291250504 3.1291250504 3.1291250504 3.1291250504 3.1291250504 
3.1160673664 3.1160673664 3.1030096824 3.0899519984 3.0899519984 3.0768943144 3.0768943144 3.0899519984 3.1030096824 
3.1160673664 3.1291250504 3.1291250504 3.1291250504 3.1291250504 3.1160673664 3.1030096824 3.0899519984 3.0899519984 
3.0768943144 3.0768943144 3.0899519984 3.1030096824 3.1160673664 3.1291250504 3.1291250504 3.1291250504 3.1291250504 
3.1160673664 3.1030096824 3.0899519984 3.0899519984 3.0768943144 3.0768943144 3.0899519984 3.1030096824 3.1160673664 
3.1291250504 3.1291250504 3.1291250504 3.1160673664 3.1030096824 3.0899519984 3.0899519984 3.0768943144 3.0768943144 
3.0899519984 3.1030096824 3.1160673664 3.1160673664 3.1291250504 3.1291250504 3.1291250504 3.1160673664 3.1030096824 
3.1030096824 3.0899519984 3.0899519984 3.0768943144 3.0768943144 3.0899519984 3.0899519984 3.1030096824 3.1160673664 
3.1291250504 3.1291250504 3.1291250504 3.1291250504 3.1160673664 3.1160673664 3.1030096824 3.0899519984 3.0899519984 
3.0768943144 3.0768943144 3.0768943144 3.0899519984 3.1030096824 3.1030096824 3.1160673664 3.1291250504 3.1291250504 
3.1160673664 3.1030096824 3.0899519984 3.0899519984 3.0899519984 3.0768943144 3.0638366305 3.0638366305 3.0638366305 
3.0768943144 3.0899519984 3.1030096824 3.1160673664 3.1160673664 3.1291250504 3.1291250504 3.1291250504 3.1160673664 
3.1030096824 3.0899519984 3.0899519984 3.0899519984 3.0768943144 3.0638366305 3.0638366305 3.0638366305 3.0638366305 
3.0638366305 3.0638366305 3.0638366305 3.0768943144 3.0899519984 3.1030096824 3.1160673664 3.1291250504 3.1291250504 
3.1291250504 3.1160673664 3.1030096824 3.0899519984 3.0899519984 3.0768943144 3.0638366305 3.0638366305 3.0638366305 
3.0638366305 3.0768943144 3.0899519984 3.1030096824 3.1160673664 3.1291250504 3.1291250504 3.1291250504 3.1160673664 
3.1030096824 3.0899519984 3.0899519984 3.0768943144 3.0768943144 3.0638366305 3.0638366305 3.0768943144 3.0899519984 
3.1030096824 3.1160673664 3.1291250504 3.1291250504 3.1160673664 3.1030096824 3.0899519984 3.0899519984 3.0899519984 
3.0768943144 3.0638366305 3.0638366305 3.0638366305 3.0638366305 3.0768943144 3.0899519984 3.1030096824 3.1160673664 