# vtk DataFile Version 4.2
vtk output
ASCII
DATASET UNSTRUCTURED_GRID
POINTS 1740 double
2144.07 -94.44003 0 2911 0 0 16.54298 -37.82236 0 
5.09149 -21.30132 0 1.27433 -10.75385 0 0 0 0 
2.54575 15.14293 0 6.36291 23.76126 0 14.00014 34.89063 0 
30.50239 50.70793 0 33.39435 -52.93479 0 2050.91 -103.7862 0 
60.1465 -69.72165 0 88.83633 -83.2817 0 118.7656 -94.71113 0 
153.4168 -105.7022 0 199.5806 -117.771 0 261.4466 -130.7139 0 
345.846 -144.1892 0 460.3522 -157.0592 0 608.4185 -167.1903 0 
783.2313 -172.4016 0 941.0559 -172.4533 0 1063.409 -170.1096 0 
1164.153 -166.8746 0 1263.449 -162.682 0 1375.468 -156.8941 0 
1513.293 -148.414 0 1665.281 -137.5317 0 1791.864 -127.3721 0 
2195.451 -89.09491 0 2273.924 -80.67077 0 2383.731 -68.3513 0 
2517.64 -52.47337 0 2649.227 -35.9232 0 2740.773 -23.82991 0 
2804.387 -15.13419 0 2848.802 -8.916218 0 2881.944 -4.196067 0 
56.61447 67.79801 0 84.09687 81.25172 0 112.4783 92.48395 0 
142.1748 102.3504 0 174.8563 111.6168 0 213.124 120.8806 0 
260.3759 130.5151 0 324.6539 141.1779 0 418.1422 152.9178 0 
535.6656 162.9871 0 690.9154 170.4255 0 902.6513 172.7852 0 
1100.32 169.0517 0 1270.99 162.3262 0 1462.794 151.6837 0 
1631.287 140.0952 0 1747.993 131 0 1922.788 115.9027 0 
2069.56 101.951 0 2128.804 96.0021 0 2297.147 78.11721 0 
2414.379 64.80104 0 2554.023 47.99319 0 2673.693 32.73885 0 
2757.97 21.50315 0 2814.297 13.7575 0 2852.02 8.460961 0 
2882.272 4.148909 0 1791.052 127.4402 0 1366.894 157.3738 0 
1444.38 -152.8302 0 1547.039 146.1296 0 1589.287 -143.1614 0 
1878.731 119.8675 0 1997.072 108.9828 0 1185.654 166.0472 0 
1882.536 -119.5292 0 1971.323 -111.4145 0 1684.777 136.0292 0 
2099.317 -98.9855 0 2234.809 84.9091 0 2181.695 90.53914 0 
1728.573 -132.5703 0 1718.815 133.3509 0 1834.825 123.7132 0 
1960.305 112.4444 0 2033.69 105.4648 0 2099.184 98.99892 0 
2214.291 -69.512101661 396.8421 2955.512 18.862649619 396.8421 158.0786 -22.080800382 396.8421 
147.0109 -6.2362108674 396.8421 143.3217 3.9051428169 396.8421 142.09 14.264274082 396.8421 
144.5505 28.883434437 396.8421 148.2398 37.221057516 396.8421 155.621 48.00769274 396.8421 
171.5701 63.378464763 396.8421 174.3652 -36.527852456 396.8421 2124.254 -78.411721812 396.8421 
200.2206 -52.517960484 396.8421 227.9488 -65.384776745 396.8421 256.8748 -76.190840439 396.8421 
290.3647 -86.543814051 396.8421 334.981 -97.860340045 396.8421 394.7733 -109.92143137 396.8421 
476.3434 -122.36374815 396.8421 587.0114 -134.06534496 396.8421 730.1145 -142.98883988 396.8421 
899.0676 -147.12252568 396.8421 1051.602 -146.47132432 396.8421 1169.853 -143.73816161 396.8421 
1267.221 -140.27641537 396.8421 1363.188 -135.93902226 396.8421 1471.452 -130.07740711 396.8421 
1604.657 -121.63268037 396.8421 1751.55 -110.94548523 396.8421 1873.891 -101.07083683 396.8421 
2263.949 -64.439151022 396.8421 2339.792 -56.46648162 396.8421 2445.918 -44.852262484 396.8421 
2575.338 -29.952509325 396.8421 2702.515 -14.493150609 396.8421 2790.992 -3.2364973692 396.8421 
2852.473 4.839435083 396.8421 2895.4 10.605658241 396.8421 2927.431 14.978437967 396.8421 
196.807 80.044504568 396.8421 223.3682 93.211847269 396.8421 250.7983 104.24119479 396.8421 
279.4994 113.96015037 396.8421 311.0855 123.11813476 396.8421 348.0705 132.30755281 396.8421 
393.7383 141.90867047 396.8421 455.8617 152.60238128 396.8421 546.2162 164.49887325 396.8421 
659.8003 174.89292962 396.8421 809.846 182.89981352 396.8421 1014.485 186.17647546 396.8421 
1205.528 183.35937811 396.8421 1370.477 177.42430931 396.8421 1555.851 167.63207394 396.8421 
1718.696 156.73333915 396.8421 1831.49 148.07548843 396.8421 2000.426 133.55988666 396.8421 
2142.278 120.02070227 396.8421 2199.537 114.21727003 396.8421 2362.236 96.675609141 396.8421 
2475.539 83.534763017 396.8421 2610.501 66.864916405 396.8421 2726.16 51.666091559 396.8421 
2807.613 40.434211345 396.8421 2862.05 32.67472116 396.8421 2898.509 27.361527432 396.8421 
2927.749 23.03182695 396.8421 1873.106 144.66754722 396.8421 1463.165 172.90403901 396.8421 
1538.054 -126.01415363 396.8421 1637.272 162.43072008 396.8421 1678.104 -116.45742431 396.8421 
1957.846 137.3869541 396.8421 2072.22 126.85795033 396.8421 1288 180.75233833 396.8421 
1961.524 -93.499926504 396.8421 2047.334 -85.706203998 396.8421 1770.393 152.87235878 396.8421 
2171.038 -73.835586445 396.8421 2301.989 103.35273515 396.8421 2250.655 108.87348241 396.8421 
1812.721 -106.11270237 396.8421 1803.29 150.32044184 396.8421 1915.411 141.08923843 396.8421 
2036.686 130.21385831 396.8421 2107.61 123.44048032 396.8421 2170.909 117.14295124 396.8421 
2284.511 -51.177630064 793.6842 3000.027 32.635728698 793.6842 299.6143 -10.667070807 793.6842 
288.9304 4.5316326402 793.6842 285.3691 14.276801979 793.6842 284.1801 24.244112258 793.6842 
286.5551 38.331546297 793.6842 290.1167 46.377395918 793.6842 297.2417 56.79947845 793.6842 
312.6379 71.677362899 793.6842 315.336 -24.49389529 793.6842 2197.597 -59.713633648 793.6842 
340.2947 -39.758648863 793.6842 367.0612 -52.008061725 793.6842 394.9839 -62.268871388 793.6842 
427.3123 -72.072826759 793.6842 470.3812 -82.75357726 793.6842 528.0998 -94.084731054 793.6842 
606.8411 -105.6931877 793.6842 713.6708 -116.48117143 793.6842 851.8104 -124.49866683 793.6842 
1014.904 -127.86857145 793.6842 1162.147 -126.75652381 793.6842 1276.298 -123.79302486 793.6842 
1370.288 -120.21618034 793.6842 1462.927 -115.82622197 793.6842 1567.436 -109.97348651 793.6842 
1696.021 -101.63264446 793.6842 1837.82 -91.172648915 793.6842 1955.917 -81.573411799 793.6842 
2332.447 -46.322435359 793.6842 2405.659 -38.705960471 793.6842 2508.105 -27.638546441 793.6842 
2633.037 -13.482903918 793.6842 2755.801 1.1608491348 793.6842 2841.209 11.799500694 793.6842 
2900.561 19.420992962 793.6842 2941.997 24.857633649 793.6842 2972.917 28.977779809 793.6842 
336.9995 87.846923621 793.6842 362.6396 100.65274374 793.6842 389.1182 111.40251935 793.6842 
416.8239 120.89488365 793.6842 447.3145 129.85858035 793.6842 483.0167 138.87465814 793.6842 
527.1009 148.32257843 793.6842 587.0697 158.8887252 793.6842 674.2905 170.72100196 793.6842 
783.9349 181.17914924 793.6842 928.7766 189.44049517 793.6842 1126.317 193.2666573 793.6842 
1310.735 191.09153901 793.6842 1469.963 185.76749667 793.6842 1648.908 176.69198924 793.6842 
1806.105 166.42939426 793.6842 1914.987 158.20800344 793.6842 2078.064 144.33135899 793.6842 
2214.996 131.30920624 793.6842 2270.269 125.70844251 793.6842 2427.326 108.72138914 793.6842 
2536.699 95.946898375 793.6842 2666.98 79.691161361 793.6842 2778.628 64.827564394 793.6842 
2857.255 53.820884435 793.6842 2909.806 46.206947612 793.6842 2945.001 40.989060497 793.6842 
2973.224 36.734560202 793.6842 1955.16 154.95932226 793.6842 1559.437 181.60327432 793.6842 
1631.729 -105.94967975 793.6842 1727.505 171.80894647 793.6842 1766.921 -96.556607939 793.6842 
2036.96 147.99940057 793.6842 2147.368 137.89357457 793.6842 1390.347 188.78534424 793.6842 
2040.511 -74.246588006 793.6842 2123.346 -66.729279142 793.6842 1856.009 162.76918116 793.6842 
2242.759 -55.321414648 793.6842 2369.167 115.19693702 793.6842 2319.614 120.54235441 793.6842 
1896.869 -86.468016655 793.6842 1887.765 160.34443497 793.6842 1995.998 151.54181863 793.6842 
2113.066 141.1194122 793.6842 2181.531 134.60450365 793.6842 2242.634 128.53325126 793.6842 
2354.732 -38.44030612 1190.526 3044.539 41.686396351 1190.526 441.15 -2.6772612508 1190.526 
430.8497 11.902867375 1190.526 427.4164 21.261750818 1190.526 426.2701 30.841668595 1190.526 
428.5601 44.394166574 1190.526 431.9934 52.141263227 1190.526 438.8627 62.183966356 1190.526 
453.7057 76.535744868 1190.526 456.3069 -15.922548871 1190.526 2270.94 -46.647914853 1190.526 
480.3688 -30.521743773 1190.526 506.1737 -42.216590237 1190.526 533.0934 -51.996601455 1190.526 
564.26 -61.324918597 1190.526 605.7815 -71.465684473 1190.526 661.4265 -82.191811444 1190.526 
737.3385 -93.130927467 1190.526 840.33 -103.21684977 1190.526 973.5064 -110.58198769 1190.526 
1130.74 -113.45738771 1190.526 1272.693 -112.09760215 1190.526 1382.742 -109.04874415 1190.526 
1473.356 -105.46239722 1190.526 1562.666 -101.11122498 1190.526 1663.42 -95.354678975 1190.526 
1787.385 -87.202099589 1190.526 1924.09 -77.031150124 1190.526 2037.944 -67.733052252 1190.526 
2400.946 -33.777209672 1190.526 2471.527 -26.469178763 1190.526 2570.292 -15.863741212 1190.526 
2690.735 -2.3196861022 1190.526 2809.091 11.670713695 1190.526 2891.43 21.823634359 1190.526 
2948.647 29.092178061 1190.526 2988.597 34.274739852 1190.526 3018.403 38.201215046 1190.526 
477.1918 92.155462118 1190.526 501.9109 104.54339917 1190.526 527.4382 114.95558176 1190.526 
554.1485 124.16092375 1190.526 583.5435 132.86430348 1190.526 617.963 141.63071638 1190.526 
660.4633 150.83235674 1190.526 718.2775 161.14680276 1190.526 802.3645 172.73996033 1190.526 
908.0698 183.05237085 1190.526 1047.707 191.30993177 1190.526 1238.151 195.37238333 1190.526 
1415.942 193.59181728 1190.526 1569.449 188.70359648 1190.526 1741.965 180.19443407 1190.526 
1893.514 170.47922885 1190.526 1998.484 162.65810458 1190.526 2155.702 149.4070238 1190.526 
2287.714 136.93026405 1190.526 2341.001 131.55429506 1190.526 2492.415 115.21944801 1190.526 
2597.858 102.91065959 1190.526 2723.46 87.222140577 1190.526 2831.095 72.856134647 1190.526 
2906.899 62.206721156 1190.526 2957.56 54.835000054 1190.526 2991.49 49.780920404 1190.526 
3018.699 45.658749013 1190.526 2037.214 159.56085905 1190.526 1655.708 184.81391879 1190.526 
1725.403 -91.415742812 1190.526 1817.738 175.58006797 1190.526 1855.738 -82.260364996 1190.526 
2116.075 152.91477403 1190.526 2222.516 143.24312422 1190.526 1492.694 191.4942594 1190.526 
2119.498 -60.653716676 1190.526 2199.357 -53.403612626 1190.526 1941.625 167.00045897 1190.526 
2314.479 -42.423108373 1190.526 2436.346 121.45121454 1190.526 2388.573 126.59103435 1190.526 
1981.017 -72.470383288 1190.526 1972.24 164.69296469 1190.526 2076.584 156.29907358 1190.526 
[...]
POINT_DATA 1740
FIELD FieldData 1
Pressure 1 1740 double
3.1107229742 3.0280210643 3.0098218683 2.9870156105 2.9763950194 2.9528376364 2.9684606576 2.9861781388 3.0179642263 
3.0303943335 3.0129990529 3.1130776053 3.037757364 3.0522586685 3.0694948224 3.0671537324 3.0846137017 3.08969801 
3.1117078436 3.1168297395 3.13470012 3.1434677946 3.1463947748 3.1539375231 3.1507632982 3.1462201259 3.143096339 
3.1345332854 3.1250442902 3.1190688806 3.1088277503 3.1053039181 3.1012565431 3.0947585118 3.0850613735 3.0759634678 
3.0660693578 3.0581773363 3.0485027988 3.0659101774 3.0781194362 3.0917629477 3.1041264011 3.1070872729 3.1191373533 
3.1251276003 3.1333715774 3.1485503497 3.160024067 3.1768268527 3.1872519326 3.1937905058 3.2003192051 3.2071658922 
3.2025446477 3.2009523752 3.1646576813 3.1612266519 3.1657379627 3.0957075725 3.0857400628 3.0744844354 3.0629202046 
3.0527519438 3.0415276724 3.0346033108 3.0356334286 3.186787804 3.2051291945 3.140096434 3.20457461 3.1300276515 
3.1744221346 3.1583288464 3.199384442 3.1166592078 3.1149671975 3.2012364447 3.1119223687 3.1013484435 3.145532561 
3.1213278864 3.2014275162 3.1777847342 3.1617574285 3.1578979155 3.1634457217 3.1085688164 3.0258409339 3.0274862287 
2.9993568503 3.0053209728 2.9845445728 2.9948707467 3.0073511119 3.0344464396 3.0527192387 3.039416935 3.1105701451 
3.0583144943 3.0714702363 3.0851368285 3.0891542901 3.1039136858 3.1152537827 3.1272993455 3.1344757201 3.1433362887 
3.1485211468 3.1524959306 3.1566373982 3.1531342996 3.1475680751 3.1409058895 3.1287955562 3.1203664825 3.1157556972 
3.1065078086 3.1025906737 3.0980307134 3.0909460824 3.0813631462 3.0721675404 3.0625217917 3.0552590433 3.0394570079 
3.0847863255 3.1046912346 3.116251983 3.1260253536 3.1337110953 3.1399389234 3.1444262889 3.1532183894 3.165136749 
3.1746947779 3.1826770473 3.1908992291 3.196339623 3.2040654356 3.2074715252 3.1971500403 3.1893448571 3.1566370133 
3.1587261249 3.1594508414 3.0800453925 3.0742577032 3.0668070355 3.0556134057 3.0458331192 3.0357766305 3.0313343167 
3.0311125068 3.1715101713 3.2065316973 3.1366367945 3.200485921 3.1240518583 3.1633873998 3.154101546 3.2007985057 
3.1133500172 3.1121749586 3.1958063441 3.1094471163 3.0767947743 3.1228906976 3.1179195288 3.1948097849 3.1656790763 
3.1570494943 3.1561201102 3.1622665822 3.1075363088 3.0217659272 3.0294935252 3.0020477324 3.0028607675 2.9835317774 
2.9971429483 3.0097393003 3.0379336525 3.0594089133 3.0485419003 3.109920104 3.0628418604 3.08214257 3.0994284819 
3.1073857677 3.1185814964 3.12864386 3.1398721008 3.1476322831 3.1545523997 3.1576387015 3.1584937335 3.1599538899 
3.153943793 3.1457571982 3.1370224962 3.1240304561 3.117427138 3.1143623648 3.105070434 3.1009907881 3.0955075508 
3.0889656998 3.0785772429 3.069137966 3.0599397041 3.0530362148 3.041511841 3.0901459667 3.1125794769 3.1303483622 
3.139578311 3.1538147706 3.1598510369 3.1688046521 3.1733025635 3.1813165827 3.1904994881 3.1949070494 3.2013096543 
3.2039770653 3.2118237273 3.2126306321 3.198520595 3.1857950075 3.1531277543 3.1566454614 3.1404132567 3.071432422 
3.0665516556 3.0604905719 3.0499715181 3.0399926456 3.0306127541 3.0262205509 3.0253472676 3.1652410219 3.213320938 
3.1314938107 3.2032253692 3.1193787212 3.1586810812 3.1528028845 3.2078098309 3.1119342035 3.11127525 3.1962955611 
3.1088822842 3.0677054661 3.0815189287 3.1160419763 3.1939683945 3.1599187941 3.1535026791 3.1540273419 3.1608691806 
3.1070761604 3.0198239358 3.0300247414 3.0019805936 3.0030971416 2.9823807621 2.9925058694 3.0059172357 3.0381188598 
3.0596284195 3.048455583 3.1096071783 3.0687618872 3.0864677286 3.1047538382 3.1147426292 3.1258766799 3.1350239577 
3.1479522242 3.1558897867 3.1615681894 3.1629816435 3.1642223819 3.1626896535 3.1539734799 3.1431995714 3.1319712603 
3.1210219475 3.1160737462 3.1140178451 3.1046572447 3.1000030979 3.095435113 3.0887962693 3.078137709 3.0681771836 
3.0593873572 3.0524986484 3.0418944777 3.0934412413 3.1169233532 3.1328606547 3.1443721951 3.1522063127 3.1630287685 
3.1760981861 3.1836916654 3.1915627748 3.2019443025 3.2069672308 3.2128157521 3.2136370169 3.220359713 3.2206105765 
3.2033579029 3.1887530193 3.1523814592 3.1552369336 3.1020900219 3.0692310818 3.0631312348 3.0556212442 3.045393698 
3.0355970307 3.0264102422 3.0217882332 3.020511841 3.1660190982 3.2222138144 3.1265807855 3.20843878 3.1168315271 
3.1569982382 3.1517629221 3.2169086875 3.111971603 3.1110648924 3.2005115564 3.1081548969 3.0694181699 3.0715283695 
3.1151102364 3.1972935378 3.1593777751 3.1526726424 3.1527983927 3.1556875211 3.1065326516 3.0185844322 3.0312589931 
3.0017737334 3.0056224258 2.9852319191 2.9938389428 3.0065519906 3.0397788758 3.0605123762 3.0489210836 3.1092716751 
3.0704033518 3.08838863 3.104682623 3.1158977507 3.1276159712 3.1388309494 3.1498334215 3.1593114629 3.1655692801 
3.1666239367 3.1666699493 3.1631204599 3.1519296353 3.1389783287 3.1266765735 3.118921208 3.1153606069 3.1139672515 
3.1041617426 3.0997365901 3.0955731721 3.0889643173 3.0786850647 3.0686700497 3.0600151018 3.0529122395 3.0430295481 
3.0948027412 3.118299932 3.1334621981 3.1456304884 3.155085259 3.1659583765 3.1772299831 3.1857371215 3.1957727639 
3.2075503913 3.2161422367 3.2216097914 3.222718497 3.2279834945 3.2291330262 3.2072009351 3.1910996721 3.1518320721 
3.1540338949 3.0735883445 3.0672809419 3.0621990433 3.0535132403 3.0428833225 3.0326901866 3.0233710754 3.0187052158 
3.0168167744 3.1670694704 3.2303538961 3.1221018496 3.2149571838 3.1155980111 3.1560062812 3.1511548801 3.2253472503 
3.1125528136 3.110755733 3.2027257914 3.1075891166 3.0693930405 3.0682132865 3.114569887 3.1995931206 3.1582841155 
3.1527080061 3.1514967496 3.1410933462 3.1058726212 3.0182631269 3.0317535705 3.0021219879 3.0065875128 2.9858243719 
2.994621151 3.0077852228 3.0405428575 3.0620845162 3.0492421822 3.1089845578 3.0707958612 3.0895714202 3.1049063573 
3.1168573643 3.1285136968 3.1407328619 3.1518608236 3.1615517862 3.1687733897 3.1695962863 3.1685997948 3.1624316394 
3.1483045034 3.1342184441 3.1221290796 3.118309342 3.1156716279 3.1141709832 3.1037033171 3.0995707798 3.0957955596 
3.0893079683 3.0792044919 3.069191747 3.0606553854 3.0534710479 3.043910343 3.0963162281 3.1199361611 3.1351017196 
3.1474062607 3.1564695608 3.168011622 3.1794559722 3.1888619245 3.2001804151 3.2117137608 3.2228800669 3.2288632613 
3.231195699 3.2359687185 3.2388707557 3.2134420978 3.194275048 3.1490910448 3.148707 3.0636258781 3.0669977183 
3.0612191042 3.0522762959 3.0418907807 3.0316325319 3.0218573214 3.0171542995 3.014747601 3.1674048345 3.2385662397 
3.1189623603 3.2241204439 3.1153071107 3.1534930015 3.1490767456 3.2336586149 3.1128308928 3.1104068243 3.2067109502 
3.1071693431 3.0705991473 3.0685742125 3.1145907676 3.2031578926 3.1563010402 3.1504621041 3.1491349269 3.0986581692 
3.1056140923 3.0183891856 3.0316957424 3.0020457441 3.0064813673 2.9858854678 2.9942712639 3.0079727318 3.0411012971 
3.0627335783 3.0487946215 3.1089397402 3.0705990648 3.0895241493 3.1046711536 3.1171812977 3.1288298481 3.141678935 
3.1531812753 3.1629065495 3.1710773271 3.1716117937 3.1700861196 3.1608544344 3.144837057 3.1299589821 3.1189245842 
3.1177172389 3.1166365278 3.1145759566 3.1036369202 3.0995324301 3.0959471938 3.0897426398 3.079710576 3.0697742024 
3.0612079747 3.0540695194 3.0441774506 3.0973725644 3.1210740179 3.1365897446 3.1491091904 3.158533104 3.1700147053 
3.1814988303 3.1911603381 3.203382941 3.2153442896 3.2272650924 3.2352079394 3.2385058841 3.243141753 3.2482353328 
3.2233913621 3.2005474056 3.1449696595 3.1313456478 3.0596607399 3.0651848095 3.0588191503 3.0503641371 3.0406655013 
3.0309600519 3.0208827809 3.0165016586 3.0137487477 3.169574942 3.2468119437 3.1172136027 3.2358655332 3.1165757256 
3.149730694 3.1453592363 3.2411605569 3.1126474612 3.1100981406 3.2144774649 3.1069817973 3.0693838367 3.0681352997 
3.1154644468 3.209990135 3.1550892379 3.1463744827 3.1460957612 3.0594721917 3.1055749627 3.0183255335 3.0320245209 
3.0022246262 3.0074637597 2.9868253449 2.9945943623 3.0083155084 3.0419472129 3.0636144875 3.0484845689 3.1089437098 
3.0702355192 3.0893104202 3.1045099606 3.1173222626 3.1289760495 3.1420859099 3.153805573 3.1645663748 3.171946105 
3.172636778 3.1704832085 3.158410423 3.1408920712 3.1267712914 3.117075173 3.118490265 3.1174930534 3.1151782296 
3.1037018521 3.0997592291 3.0961243798 3.0901322437 3.0801376514 3.0702456953 3.061626614 3.054570489 3.0441314532 
3.0985911848 3.1225446707 3.1382176539 3.1509701657 3.1604799978 3.1719882108 3.183648866 3.1936692892 3.2064448052 
3.2187839751 3.2309802502 3.2400955692 3.2447284917 3.249862 3.2564543472 3.2375549841 3.2124442595 3.1392818282 
3.0932446029 3.0548445205 3.0606169836 3.0540291797 3.0476825719 3.0387088189 3.0296061219 3.0196869331 3.0157675694 
3.0128426058 3.1748228179 3.2536395111 3.1167060098 3.2532460495 3.1182239893 3.1450534728 3.1407114176 3.2473623752 
3.1126146371 3.1099419679 3.2279195976 3.1070331869 3.0649135152 3.0617187248 3.1159595595 3.2225899315 3.1542555686 
3.1408794548 3.142264267 3.045525879 3.1057384167 3.0177353427 3.0325168997 3.0024386912 3.0083698628 2.9878136473 
2.9953000811 3.008997704 3.0428204218 3.0647404689 3.0479602368 3.1091201028 3.0697189786 3.0888676132 3.1043400025 
3.1173064237 3.1288038976 3.1422047571 3.1539655311 3.1653241124 3.1726409501 3.1734264445 3.1704221941 3.1558745424 
3.1374742948 3.124697217 3.1167505068 3.1186230818 3.1181480416 3.1156819505 3.1038920434 3.1000344064 3.0963883586 
3.0904596716 3.0804300271 3.0705405995 3.0618260514 3.0548361286 3.0438657986 3.1000717382 3.1242561442 3.140149687 
3.1530604275 3.1628331556 3.1743561527 3.1861875286 3.1964183298 3.2097109684 3.2223779691 3.2345705385 3.2445905897 
3.2500502489 3.2550491576 3.262028925 3.2555107001 3.2340924593 3.1324725912 3.0554578711 3.0503470921 3.0555747499 
3.0504258421 3.0454487144 3.036521816 3.0276514267 3.0179546405 3.0144593632 3.0113996252 3.1873132471 3.2583818995 
3.1168415192 3.2676316516 3.1183511342 3.1405768049 3.1356270027 3.2527819397 3.1127204873 3.1099134939 3.2493112906 
3.1072695753 3.060178519 3.0540075903 3.116745323 3.2441192987 3.1573125877 3.1345339489 3.1363223165 3.0511736907 
3.1061560535 3.0165407457 3.0328885676 3.0026493616 3.0093199224 2.9885826192 2.9959497452 3.0096185975 3.0435841679 
3.0657333902 3.0473896466 3.1095793145 3.0690226827 3.0880694963 3.1038270906 3.1167153113 3.1282916671 3.1418052844 
3.153887719 3.1656028957 3.1730836937 3.1739054589 3.1702577803 3.1535775819 3.1352543457 3.1241650286 3.1173390857 
3.1198295411 3.1191315268 3.1162576913 3.1042259846 3.1004404117 3.0967317584 3.0908414423 3.0806962307 3.0708013955 
3.0619236904 3.0549718618 3.0437313222 3.1015276196 3.1259227187 3.1419097015 3.1550815576 3.1650974766 3.1767476327 
3.1889217848 3.1993839769 3.213179021 3.2260166935 3.2382520253 3.2486196346 3.2545907914 3.2606410082 3.2673074321 
3.2749942862 3.269049494 3.124607301 3.0377163669 3.0474786728 3.051186798 3.0475902047 3.0422981248 3.0335274823 
3.0248997601 3.0153316961 3.0122333986 3.0091460328 3.2121437959 3.2616527936 3.1180953876 3.2748488819 3.1197563549 
3.1372366386 3.1295481207 3.2575119847 3.1132016339 3.1101544547 3.2759046189 3.1077615333 3.052611121 3.0513344535 
3.1176303469 3.2734813057 3.1709805756 3.1266798166 3.1225739128 3.0455980295 3.1067410334 3.0148713838 3.0331412907 
3.0027537859 3.010156027 2.9891586046 2.996538947 3.010162113 3.0441587331 3.0664810863 3.0463903788 3.1102336981 
3.0679836768 3.0870931157 3.1024001307 3.115099918 3.127109571 3.1407668543 3.1534357694 3.1653178574 3.1727153852 
3.1737111035 3.1696116784 3.1515377692 3.1338403659 3.1242363218 3.1180752631 3.1201810714 3.1201966353 3.1169881628 
3.1047829597 3.1010250736 3.0972464075 3.0913114379 3.0810611894 3.0710655917 3.0620363713 3.0550866622 3.0438582424 
3.1028496842 3.1274485951 3.1434657638 3.1569620996 3.1670265197 3.1789808196 3.1914930832 3.202252283 3.2165690356 
3.2295575695 3.2419188739 3.2523765169 3.2582315295 3.2652295415 3.2690219511 3.2802757106 3.3121285555 3.1175709086 
3.0443736967 3.0394021073 3.0452638295 3.0425919438 3.0373128899 3.0291560858 3.0210222967 3.0117142866 3.009071461 
3.0059611324 3.2524430316 3.2672030431 3.1185420894 3.2773955532 3.1209305432 3.1395851036 3.1225241524 3.2617522092 
3.113959509 3.1107184577 3.2889821057 3.1084102795 3.0471300495 3.0489567249 3.1184265195 3.3028092586 3.2060419616 
3.1183106692 3.086581812 3.0553613362 3.1073850204 3.0129100911 3.0333186529 3.002885973 3.0103761236 2.9896513335 
2.9972153982 3.0107570154 3.0446270613 3.067150172 3.0453025952 3.1109248234 3.0668645954 3.086065898 3.1008089781 
3.1133126538 3.1256718882 3.1394256756 3.1526639798 3.1647204677 3.1721249648 3.1733322823 3.1686791494 3.1499896142 
3.1329151493 3.1243392639 3.1185454682 3.1210131394 3.1211130534 3.1175619723 3.1052932556 3.1015027988 3.0977234582 
3.0916887226 3.0814051437 3.0713000139 3.0621665884 3.0551214574 3.0441729371 3.1041622304 3.1289521201 3.1449909084 
3.1588914177 3.1688357128 3.1811698253 3.1939367897 3.2049445476 3.2198349493 3.2329629508 3.2452789671 3.2558944313 
3.2618977803 3.2705310747 3.2729984387 3.2813328866 3.3345131986 3.1185155299 3.044560681 3.0378390376 3.0378417142 
3.0363922835 3.0314411118 3.0240199028 3.0163947514 3.0075263056 3.0053013642 3.0020066326 3.3152712036 3.2700241866 
3.1190719997 3.2779358998 3.1218037806 3.1598705619 3.1136736055 3.2656066308 3.1146400855 3.1113157646 3.2986430493 
3.1090991715 3.0409763528 3.0400966071 3.1188611981 3.3075311033 3.2678510228 3.1115303633 3.050842519 3.053462416 
3.1079325513 3.010734751 3.0333969668 3.0029926834 3.0104007211 2.990036674 2.9980542967 3.0115646696 3.0451591304 
3.067924869 3.0442396376 3.111555185 3.0658375119 3.0850553878 3.0994976156 3.1118929519 3.1244761477 3.1382471989 
3.1520057685 3.1640451918 3.171556067 3.1731126424 3.1680174786 3.1495064705 3.132363565 3.1247223866 3.1186493976 
3.1216421029 3.1215383286 3.1180243481 3.1056184594 3.1017674479 3.0980074723 3.0918065586 3.0815333817 3.0712948275 
3.0621641068 3.0549133067 3.0446040338 3.1055578932 3.1305709687 3.1466028781 3.1609488193 3.1707535409 3.1834279534 
3.1964126228 3.2075265698 3.2229176298 3.2360837776 3.2488597318 3.2586300284 3.2651352882 3.2730469658 3.2769693582 
3.2761986029 3.3235716496 3.1356786693 3.0374194734 3.0307500337 3.0331618259 3.030991426 3.0258815441 3.0189845797 
3.0117311199 3.0033136873 3.0015821535 2.9976908582 3.3581982753 3.2749253155 3.1194214082 3.2732480354 3.1224868494 
3.2178625173 3.1010817537 3.2692371218 3.1151601189 3.1118314251 3.2868185091 3.1096995765 3.03601955 3.0318586479 
3.1191430233 3.3100219041 3.3385529601 3.1057330742 3.0193221802 3.0443282599 3.1083952902 3.0084582575 3.0334165278 
3.0032521704 3.0106616186 2.9903486187 2.9989957919 3.0123862018 3.0457405578 3.0687837181 3.0432512288 3.1120110244 
3.0652241683 3.084247986 3.098741642 3.1111115897 3.1237818009 3.1373506642 3.1516854503 3.1636499448 3.171243397 
3.1731716531 3.1679309441 3.1499319883 3.1333282197 3.125416316 3.1187083384 3.1219278257 3.122037884 3.1184763923 
3.105850183 3.1018564334 3.0980575787 3.0916509129 3.0813963498 3.0710147589 3.0619356731 3.0544297867 3.0449026504 
3.1070022131 3.1322634897 3.1482333242 3.1629827208 3.1727006429 3.1856158831 3.1988680186 3.2099754118 3.2256559049 
3.2389282039 3.2516401619 3.2617032092 3.2679547171 3.2767440257 3.280744019 3.2806898325 3.3237023081 3.1790546531 
3.0321287082 3.0202244475 3.0274278602 3.0259356927 3.0208406996 3.0143091991 3.0073163954 2.999068743 2.9981465712 
2.9927666102 3.364964309 3.2784820108 3.1195459111 3.2788462369 3.1228856459 3.3313988003 3.0789967977 3.2720779933 
3.1155574365 3.1122294349 3.2822511217 3.1100942771 3.0271833688 3.0227436705 3.1193161921 3.2997736775 3.418758567 
3.0960662772 2.9825271915 3.0337115319 3.1087897278 3.0063123605 3.0335499429 3.0039019877 3.0113891801 2.9906748012 
3.0000397222 3.013230706 3.0466849333 3.0696997387 3.0427809919 3.1122350935 3.0649366862 3.0836844075 3.0986274131 
3.110988243 3.1235388739 3.1367736461 3.1516918507 3.1632741534 3.171246929 3.1733714635 3.16843165 3.1515857586 
3.1334604123 3.1257280759 3.1181698728 3.1216623485 3.122810531 3.1191500167 3.1060294618 3.101819509 3.0979913686 
3.0912902692 3.0809957249 3.0703635833 3.0614309083 3.0536928751 3.0448416397 3.1081458597 3.1337364734 3.1495528409 
3.1645267924 3.1742443644 3.1874445208 3.2009581732 3.2120708777 3.2274885041 3.2411762445 3.2535189646 3.2637762274 
3.2704295225 3.27972344 3.2829906726 3.2820803601 3.3396336416 3.2237327691 3.0231668652 3.0113982319 3.0216273242 
3.0206489243 3.0155525997 3.0096061165 3.0029261021 2.9950248798 2.9946496747 2.9878769207 3.3783687616 3.2823764969 
3.1192274702 3.2813782447 3.1229573739 3.4800917861 3.0427846264 3.2742333539 3.1158637032 3.1125486965 3.2843872144 
3.1103418021 3.0199693323 3.0158714763 3.1198502036 3.3050528683 3.4893240931 3.0736695106 2.9785183433 3.0075196273 
3.1089587626 3.0050167251 3.0323273957 3.0036844749 3.0118368405 2.9902594681 3.0005837415 3.0137271178 3.0463108865 
3.0700787416 3.0418816347 3.1123101977 3.0640240902 3.0824617036 3.0987440763 3.111034636 3.123601215 3.135934207 
3.1515344642 3.1623372671 3.1715712333 3.1743462688 3.1700190937 3.1544377876 3.1344287078 3.12587604 3.1177789809 
3.1213910149 3.1233360265 3.1197435207 3.1060776643 3.1018271204 3.0978242886 3.0905928749 3.0802682786 3.0693956983 
3.0605649098 3.0526824474 3.0443053568 3.1086528483 3.1344540104 3.1504113606 3.1654980225 3.1752021482 3.1886048943 
3.2022905769 3.2133229594 3.2285660206 3.2429341543 3.2554463984 3.265541919 3.2727931398 3.2830048076 3.2859436229 
3.2840686959 3.350210553 3.1938136874 3.0122652446 3.0092418296 3.0180052827 3.0163392779 3.012560599 3.0068455608 
3.0001456417 2.9926689797 2.9921943537 2.9849558924 3.3798387228 3.2855155068 3.1186368865 3.2851163693 3.123259505 
3.5869362523 2.9930752749 3.2765470631 3.1159283618 3.1127805292 3.2893590714 3.1106608995 3.017206717 3.0169562299 
3.1205457343 3.3189826133 3.5258510398 3.0474506976 3.0062584724 3.0053522315 3.1085754016 3.0055504778 3.0303734861 
3.0018469571 3.0084933809 2.9880970782 2.9997052276 3.0134181652 3.0475245034 3.0704362295 3.0404314692 3.1119635095 
3.063528433 3.0816926949 3.0986118579 3.1099221476 3.1231931914 3.1344079578 3.1526773452 3.1635431496 3.1737600582 
3.1785415117 3.1737190588 3.158316629 3.1356694387 3.1262723476 3.1187806311 3.1218370604 3.1238849507 3.1189964718 
3.1063871628 3.1016961899 3.0973568169 3.0897419008 3.0793390352 3.0681801371 3.0593459561 3.051415649 3.0423547928 
3.1092105265 3.1346002033 3.1514785174 3.1668668831 3.176503624 3.1896290107 3.2034915416 3.2150759894 3.230619843 
3.2458116479 3.2588657448 3.2702681825 3.2762449971 3.2867814634 3.2861398343 3.2907514058 3.3522894356 3.1064330082 
2.9993340446 3.0181662962 3.0216557291 3.0211329808 3.0167680767 3.0093166974 3.0018949028 2.9944407988 2.9932672714 
2.9857729844 3.3940760224 3.2883526304 3.1190594049 3.2902210392 3.1231304389 3.399256119 2.9819768356 3.2800807771 
3.1156234996 3.1125523419 3.2940362018 3.1104478101 3.0196547744 3.0199690884 3.1206731684 3.317723677 3.4051319203 
3.0287135008 3.0182033889 3.0229382012 3.108540234 3.0100832518 3.0321669938 3.0048905588 3.0104532902 2.9902576225 
3.0040801269 3.0171445508 3.0546654052 3.0735891035 3.0438990644 3.1143493396 3.0609064221 3.0826663823 3.0992351856 
3.1122497781 3.126347403 3.1375389991 3.1582474017 3.1750186339 3.1817063148 3.185655496 3.1784364385 3.1580727951 
3.1348020484 3.1263155813 3.1204995388 3.1239211262 3.1236204394 3.1184924338 3.1057560831 3.10156263 3.0964687425 
3.0870324981 3.0778316262 3.0655389515 3.0572133913 3.0486528874 3.0395657631 3.1090537398 3.1363399948 3.1563203348 
3.1716666568 3.1802887484 3.1978103892 3.2084738598 3.2177518125 3.236809137 3.2504796479 3.2656910405 3.2735682513 