# vtk DataFile Version 4.2
vtk output
ASCII
DATASET UNSTRUCTURED_GRID
POINTS 60 double
-1500 -3172.4533 0 -825.07225 -3172.4533 1885 -150.1445 -3172.4533 3770 
524.78325 -3172.4533 5655 1199.711 -3172.4533 7540 -1500 3172.7852 0 
-825.07225 3172.7852 1885 -150.1445 3172.7852 3770 524.78325 3172.7852 5655 
1199.711 3172.7852 7540 -317.8 -3172.4533 0 264.42775 -3172.4533 1885 
846.6555 -3172.4533 3770 1428.88325 -3172.4533 5655 2011.111 -3172.4533 7540 
-317.8 3172.7852 0 264.42775 3172.7852 1885 846.6555 3172.7852 3770 
1428.88325 3172.7852 5655 2011.111 3172.7852 7540 864.4 -3172.4533 0 
1353.92775 -3172.4533 1885 1843.4555 -3172.4533 3770 2332.98325 -3172.4533 5655 
2822.511 -3172.4533 7540 864.4 3172.7852 0 1353.92775 3172.7852 1885 
1843.4555 3172.7852 3770 2332.98325 3172.7852 5655 2822.511 3172.7852 7540 
2046.6 -3172.4533 0 2443.42775 -3172.4533 1885 2840.2555 -3172.4533 3770 
3237.08325 -3172.4533 5655 3633.911 -3172.4533 7540 2046.6 3172.7852 0 
2443.42775 3172.7852 1885 2840.2555 3172.7852 3770 3237.08325 3172.7852 5655 
3633.911 3172.7852 7540 3228.8 -3172.4533 0 3532.92775 -3172.4533 1885 
3837.0555 -3172.4533 3770 4141.18325 -3172.4533 5655 4445.311 -3172.4533 7540 
3228.8 3172.7852 0 3532.92775 3172.7852 1885 3837.0555 3172.7852 3770 
4141.18325 3172.7852 5655 4445.311 3172.7852 7540 4411 -3172.4533 0 
4622.42775 -3172.4533 1885 4833.8555 -3172.4533 3770 5045.28325 -3172.4533 5655 
5256.711 -3172.4533 7540 4411 3172.7852 0 4622.42775 3172.7852 1885 
4833.8555 3172.7852 3770 5045.28325 3172.7852 5655 5256.711 3172.7852 7540 

CELLS 89 445
4 0 5 15 10 
4 1 6 16 11 
4 2 7 17 12 
4 3 8 18 13 
4 4 9 19 14 
4 10 15 25 20 
4 11 16 26 21 
4 12 17 27 22 
4 13 18 28 23 
4 14 19 29 24 
4 20 25 35 30 
4 21 26 36 31 
4 22 27 37 32 
4 23 28 38 33 
4 24 29 39 34 
4 30 35 45 40 
4 31 36 46 41 
4 32 37 47 42 
4 33 38 48 43 
4 34 39 49 44 
4 40 45 55 50 
4 41 46 56 51 
4 42 47 57 52 
4 43 48 58 53 
4 44 49 59 54 
4 0 1 11 10 
4 1 2 12 11 
4 2 3 13 12 
4 3 4 14 13 
4 5 6 16 15 
4 6 7 17 16 
4 7 8 18 17 
4 8 9 19 18 
4 10 11 21 20 
4 11 12 22 21 
4 12 13 23 22 
4 13 14 24 23 
4 15 16 26 25 
4 16 17 27 26 
4 17 18 28 27 
4 18 19 29 28 
4 20 21 31 30 
4 21 22 32 31 
4 22 23 33 32 
4 23 24 34 33 
4 25 26 36 35 
4 26 27 37 36 
4 27 28 38 37 
4 28 29 39 38 
4 30 31 41 40 
4 31 32 42 41 
4 32 33 43 42 
4 33 34 44 43 
4 35 36 46 45 
4 36 37 47 46 
4 37 38 48 47 
4 38 39 49 48 
4 40 41 51 50 
4 41 42 52 51 
4 42 43 53 52 
4 43 44 54 53 
4 45 46 56 55 
4 46 47 57 56 
4 47 48 58 57 
4 48 49 59 58 
4 0 1 6 5 
4 1 2 7 6 
4 2 3 8 7 
4 3 4 9 8 
4 10 11 16 15 
4 11 12 17 16 
4 12 13 18 17 
4 13 14 19 18 
4 20 21 26 25 
4 21 22 27 26 
4 22 23 28 27 
4 23 24 29 28 
4 30 31 36 35 
4 31 32 37 36 
4 32 33 38 37 
4 33 34 39 38 
4 40 41 46 45 
4 41 42 47 46 
4 42 43 48 47 
4 43 44 49 48 
4 50 51 56 55 
4 51 52 57 56 
4 52 53 58 57 
4 53 54 59 58 

CELL_TYPES 89
9
9
9
9
9
9
9
9
9
9
9
9
9
9
9
9
9
9
9
9
9
9
9
9
9
9
9
9
9
9
9
9
9
9
9
9
9
9
9
9
9
9
9
9
9
9
9
9
9
9
9
9
9
9
9
9
9
9
9
9
9
9
9
9
9
9
9
9
9
9
9
9
9
9
9
9
9
9
9
9
9
9
9
9
9
9
9
9
9

POINT_DATA 60
SCALARS points_freedom int 3
LOOKUP_TABLE default
0 0 0 0 0 0 0 0 0 
0 0 0 0 0 0 0 0 0 
0 0 0 0 0 0 0 0 0 
0 0 0 0 0 0 0 1 0 
0 1 0 0 1 0 0 0 0 
0 0 0 0 1 0 0 1 0 
0 1 0 0 0 0 0 0 0 
0 1 0 0 1 0 0 1 0 
0 0 0 0 0 0 0 1 0 
0 1 0 0 1 0 0 0 0 
0 0 0 0 1 0 0 1 0 
0 1 0 0 0 0 0 0 0 
0 1 0 0 1 0 0 1 0 
0 0 0 0 0 0 0 1 0 
0 1 0 0 1 0 0 0 0 
0 0 0 0 1 0 0 1 0 
0 1 0 0 0 0 0 0 0 
0 0 0 0 0 0 0 0 0 
0 0 0 0 0 0 0 0 0 
0 0 0 0 0 0 0 0 0 

