# vtk DataFile Version 4.2
vtk output
ASCII
DATASET POLYDATA
POINTS 7410 float
1478.38 -3774.18 0 1479.82 -3775.85 0 1483.43 -3774.18 0 
1468.17 -3757.18 0 1516.82 -3758.43 0 1519.53 -3757.18 0 
1458.06 -3740.18 0 1553.82 -3741.38 0 1556.44 -3740.18 0 
1447.94 -3723.18 0 1590.82 -3724.34 0 1593.34 -3723.18 0 
1437.83 -3706.18 0 1442.82 -3714.57 0 1627.83 -3707.29 0 
1630.24 -3706.17 0 1427.72 -3689.18 0 1664.83 -3690.24 0 
1667.15 -3689.17 0 1417.6 -3672.18 0 1701.83 -3673.19 0 
1704.99 -3672.17 0 2286.6 -3672.15 0 2293.85 -3672.56 0 
2330.85 -3674.61 0 2367.85 -3676.65 0 2404.85 -3678.7 0 
2415.52 -3672.15 0 1407.49 -3655.18 0 1738.83 -3656.56 0 
1745.99 -3655.17 0 1979.8 -3655.16 0 1997.84 -3656.16 0 
2034.84 -3658.21 0 2071.84 -3660.26 0 2108.84 -3662.31 0 
2145.84 -3664.36 0 2182.84 -3666.41 0 2219.84 -3668.46 0 
2256.84 -3670.51 0 2438.23 -3655.15 0 1397.37 -3638.18 0 
1405.82 -3652.38 0 1775.83 -3643.86 0 1812.83 -3645.91 0 
1849.84 -3647.96 0 1886.84 -3650.01 0 1923.84 -3652.06 0 
1960.84 -3654.11 0 2441.85 -3651.96 0 2447.77 -3638.15 0 
1387.26 -3621.18 0 2455.05 -3621.15 0 1377.15 -3604.17 0 
2462.33 -3604.15 0 1367.03 -3587.17 0 1368.83 -3590.19 0 
2469.61 -3587.14 0 1356.92 -3570.17 0 2476.9 -3570.14 0 
1346.8 -3553.17 0 2478.86 -3565.57 0 2484.18 -3553.14 0 
1336.69 -3536.17 0 2491.46 -3536.14 0 1326.58 -3519.17 0 
1331.83 -3528 0 2498.75 -3519.14 0 1316.46 -3502.17 0 
2506.03 -3502.14 0 1306.35 -3485.17 0 2513.31 -3485.14 0 
1296.24 -3468.17 0 2515.86 -3479.18 0 2520.59 -3468.14 0 
1286.12 -3451.17 0 1294.83 -3465.81 0 2527.88 -3451.13 0 
1276.01 -3434.17 0 2535.16 -3434.13 0 1265.89 -3417.17 0 
2542.44 -3417.13 0 1255.78 -3400.17 0 1257.83 -3403.62 0 
2549.72 -3400.13 0 1245.67 -3383.17 0 2552.87 -3392.79 0 
2557.01 -3383.13 0 1235.55 -3366.16 0 2564.29 -3366.13 0 
1225.44 -3349.16 0 2571.57 -3349.13 0 1215.33 -3332.16 0 
1220.84 -3341.43 0 2578.85 -3332.13 0 1205.21 -3315.16 0 
2586.14 -3315.13 0 1195.1 -3298.16 0 2589.88 -3306.4 0 
2591.65 -3298.12 0 1184.98 -3281.16 0 2589.88 -3295.6 0 
2578.83 -3281.12 0 1174.87 -3264.16 0 1183.84 -3279.24 0 
2567.24 -3264.12 0 1164.76 -3247.16 0 2554.48 -3247.12 0 
1154.64 -3230.16 0 2552.88 -3244.98 0 2541.73 -3230.12 0 
1144.53 -3213.16 0 1146.84 -3217.05 0 2528.97 -3213.12 0 
1134.41 -3196.16 0 2516.21 -3196.12 0 1124.3 -3179.16 0 
2515.88 -3195.67 0 2503.46 -3179.12 0 1114.19 -3162.16 0 
2490.7 -3162.12 0 1104.07 -3145.16 0 1109.84 -3154.86 0 
2478.88 -3146.37 0 2477.93 -3145.12 0 1093.96 -3128.15 0 
2470.18 -3128.12 0 1083.85 -3111.15 0 2471.86 -3111.12 0 
1073.73 -3094.15 0 2477.02 -3094.11 0 1063.62 -3077.15 0 
1072.85 -3092.67 0 2478.89 -3087.98 0 2482.18 -3077.11 0 
1053.5 -3060.15 0 2487.34 -3060.11 0 1043.39 -3043.15 0 
2492.5 -3043.11 0 1033.19 -3026.15 0 1035.85 -3030.48 0 
2497.66 -3026.11 0 1023.16 -3009.15 0 2502.82 -3009.11 0 
1013.05 -2992.15 0 2507.98 -2992.11 0 1002.93 -2975.15 0 
2513.13 -2975.11 0 992.612 -2958.15 0 998.852 -2968.29 0 
2515.89 -2966.01 0 2518.29 -2958.11 0 982.707 -2941.15 0 
2523.45 -2941.1 0 972.593 -2924.15 0 2528.61 -2924.1 0 
950.74 -2907.15 0 961.854 -2919.46 0 2533.77 -2907.1 0 
942.877 -2890.14 0 2538.93 -2890.1 0 933.298 -2873.14 0 
2544.09 -2873.1 0 924.018 -2856.14 0 924.857 -2857.76 0 
2549.25 -2856.1 0 917.141 -2839.14 0 2552.9 -2844.05 0 
2554.4 -2839.1 0 910.376 -2822.14 0 2559.56 -2822.1 0 
903.466 -2805.14 0 2564.72 -2805.1 0 896.555 -2788.14 0 
2569.88 -2788.09 0 889.644 -2771.14 0 2575.04 -2771.09 0 
882.734 -2754.14 0 887.861 -2766.75 0 2580.2 -2754.09 0 
875.823 -2737.14 0 2585.36 -2737.09 0 868.913 -2720.14 0 
2589.91 -2722.09 0 2590.52 -2720.09 0 862.002 -2703.14 0 
2595.67 -2703.09 0 855.091 -2686.14 0 2600.83 -2686.09 0 
848.181 -2669.13 0 850.866 -2675.74 0 2605.99 -2669.09 0 
841.27 -2652.13 0 2611.15 -2652.09 0 834.359 -2635.13 0 
2616.31 -2635.08 0 827.449 -2618.13 0 2621.47 -2618.08 0 
820.538 -2601.13 0 2626.63 -2601.08 0 813.627 -2584.13 0 
813.87 -2584.73 0 2626.92 -2600.12 0 2631.79 -2584.08 0 
806.717 -2567.13 0 2636.94 -2567.08 0 799.806 -2550.13 0 
2642.1 -2550.08 0 792.895 -2533.13 0 2647.26 -2533.08 0 
785.985 -2516.13 0 2652.42 -2516.08 0 779.074 -2499.13 0 
2657.58 -2499.08 0 772.164 -2482.13 0 776.874 -2493.71 0 
2662.74 -2482.07 0 765.253 -2465.12 0 2663.93 -2478.16 0 
2667.9 -2465.07 0 758.342 -2448.12 0 2673.05 -2448.07 0 
751.432 -2431.12 0 2678.21 -2431.07 0 744.521 -2414.12 0 
2683.37 -2414.07 0 737.61 -2397.12 0 739.879 -2402.7 0 
2688.53 -2397.07 0 730.7 -2380.12 0 2693.69 -2380.07 0 
723.789 -2363.12 0 2698.85 -2363.07 0 716.878 -2346.12 0 
2700.93 -2356.19 0 2704.01 -2346.06 0 709.968 -2329.12 0 
2709.17 -2329.06 0 703.057 -2312.12 0 2714.32 -2312.06 0 
696.147 -2295.12 0 702.883 -2311.69 0 2719.48 -2295.06 0 
689.236 -2278.12 0 2724.64 -2278.06 0 682.325 -2261.11 0 
2727.24 -2261.06 0 675.415 -2244.11 0 2725.53 -2244.06 0 
668.504 -2227.11 0 2721.84 -2227.06 0 661.68 -2210.11 0 
665.887 -2220.68 0 2718.15 -2210.06 0 656.269 -2193.11 0 
2714.47 -2193.06 0 653.599 -2176.11 0 2710.78 -2176.05 0 
650.93 -2159.11 0 2707.09 -2159.05 0 648.261 -2142.11 0 
2703.4 -2142.05 0 645.592 -2125.11 0 2700.95 -2130.73 0 
2699.89 -2125.05 0 642.923 -2108.11 0 2699.46 -2108.05 0 
640.254 -2091.11 0 2700.04 -2091.05 0 637.585 -2074.1 0 
2700.62 -2074.05 0 634.915 -2057.1 0 2700.95 -2064.21 0 
2701.19 -2057.05 0 632.246 -2040.1 0 2701.77 -2040.05 0 
629.577 -2023.1 0 2702.35 -2023.05 0 626.908 -2006.1 0 
628.898 -2018.78 0 2702.92 -2006.05 0 624.304 -1989.1 0 
2703.5 -1989.04 0 621.863 -1972.1 0 2704.08 -1972.04 0 
619.546 -1955.1 0 2704.65 -1955.04 0 617.346 -1938.1 0 
2705.23 -1938.04 0 615.253 -1921.1 0 2705.81 -1921.04 0 
613.259 -1904.1 0 2706.39 -1904.04 0 611.358 -1887.09 0 
2706.96 -1887.04 0 609.849 -1870.09 0 2707.54 -1870.04 0 
608.453 -1853.09 0 2708.12 -1853.04 0 607.057 -1836.09 0 
2708.69 -1836.03 0 605.66 -1819.09 0 2709.27 -1819.03 0 
604.264 -1802.09 0 2709.85 -1802.03 0 602.868 -1785.09 0 
1322.22 -1785.07 0 1331.93 -1787.83 0 1368.93 -1786.31 0 
1399.05 -1785.07 0 2710.42 -1785.03 0 601.472 -1768.09 0 
1278.53 -1768.07 0 1294.93 -1778.28 0 1405.93 -1784.78 0 
1442.93 -1783.26 0 1479.94 -1781.73 0 1516.94 -1780.21 0 
1553.94 -1778.68 0 1590.94 -1777.16 0 1627.94 -1773.67 0 
1664.94 -1769.34 0 1675.86 -1768.06 0 2711 -1768.03 0 
600.076 -1751.09 0 1251.21 -1751.07 0 1257.93 -1755.25 0 
1701.94 -1764.05 0 1711.78 -1751.06 0 2711.58 -1751.03 0 
598.679 -1734.09 0 1223.89 -1734.07 0 1721.25 -1734.06 0 
2712.15 -1734.03 0 597.283 -1717.08 0 1210.37 -1717.07 0 
1220.93 -1731.73 0 1730.73 -1717.05 0 2712.73 -1717.03 0 
595.976 -1700.08 0 1200.48 -1700.07 0 1738.95 -1702.3 0 
1740.2 -1700.05 0 2713.31 -1700.03 0 594.893 -1683.08 0 
1190.6 -1683.07 0 1749.67 -1683.05 0 2713.88 -1683.03 0 
593.81 -1666.08 0 1180.71 -1666.07 0 1183.93 -1671.61 0 
1759.14 -1666.05 0 2714.46 -1666.02 0 592.727 -1649.08 0 
1170.83 -1649.07 0 1773.89 -1649.05 0 2715.04 -1649.02 0 
591.644 -1632.08 0 591.92 -1636.41 0 1160.94 -1632.06 0 
1775.95 -1646.75 0 1789.13 -1632.05 0 2715.61 -1632.02 0 
590.56 -1615.08 0 1151.06 -1615.06 0 1804.37 -1615.05 0 
2716.19 -1615.02 0 589.477 -1598.08 0 1141.17 -1598.06 0 
1146.94 -1607.98 0 1812.95 -1605.47 0 1819.61 -1598.04 0 
2716.77 -1598.02 0 588.394 -1581.08 0 1130.76 -1581.06 0 
1834.85 -1581.04 0 2717.34 -1581.02 0 587.311 -1564.08 0 
1118.18 -1564.06 0 1849.96 -1564.19 0 1850.06 -1564.04 0 
2717.92 -1564.02 0 586.228 -1547.08 0 1102.55 -1547.06 0 
1109.94 -1555.09 0 1860.38 -1547.04 0 2716.53 -1547.02 0 
-481.104 -1541.79 0 -504.866 -1530.1 0 -444.102 -1535.75 0 
-427.166 -1530.1 0 585.144 -1530.07 0 1086.92 -1530.06 0 
1868.55 -1530.04 0 2712.51 -1530.02 0 -518.104 -1523.59 0 
-539.435 -1513.1 0 -407.101 -1523.41 0 -376.166 -1513.1 0 
584.061 -1513.07 0 1071.29 -1513.06 0 1072.94 -1514.85 0 
1874.68 -1513.04 0 2705.7 -1513.02 0 -555.104 -1505.4 0 
-574.003 -1496.1 0 -370.099 -1511.08 0 -333.097 -1498.74 0 
-325.166 -1496.1 0 582.978 -1496.07 0 1055.66 -1496.06 0 
1879.77 -1496.04 0 2700.98 -1501.24 0 2699.12 -1496.02 0 
-592.104 -1487.2 0 -608.571 -1479.1 0 -296.095 -1486.41 0 
-274.167 -1479.09 0 581.895 -1479.07 0 1040.03 -1479.06 0 
1884.87 -1479.04 0 2694.05 -1479.01 0 -629.103 -1469.01 0 
-643.14 -1462.1 0 -259.094 -1474.07 0 -223.167 -1462.09 0 
580.812 -1462.07 0 1023.65 -1462.06 0 1035.94 -1474.62 0 
1886.96 -1472.06 0 1889.97 -1462.03 0 2689.35 -1462.01 0 
-666.103 -1450.81 0 -677.708 -1445.1 0 -222.092 -1461.73 0 
-185.09 -1449.4 0 -172.167 -1445.09 0 578.611 -1445.07 0 
1005.94 -1445.06 0 1895.07 -1445.03 0 2684.72 -1445.01 0 
-703.103 -1428.41 0 -703.365 -1428.1 0 -148.089 -1439.07 0 
-111.088 -1439.29 0 -74.0869 -1443.51 0 -52.7057 -1428.09 0 
574.941 -1428.07 0 991.802 -1428.06 0 998.942 -1438.49 0 
1900.17 -1428.03 0 2680.14 -1428.01 0 -715.315 -1411.1 0 
-37.0843 -1415.45 0 -33.8384 -1411.08 0 572.037 -1411.07 0 
980.126 -1411.06 0 1905.27 -1411.03 0 2675.61 -1411.01 0 
-727.265 -1394.1 0 -22.1981 -1394.08 0 569.681 -1394.07 0 
968.402 -1394.06 0 1910.36 -1394.03 0 2671.14 -1394.01 0 
-739.214 -1377.1 0 -9.4531 -1377.08 0 567.732 -1377.07 0 
957.485 -1377.06 0 961.945 -1384.72 0 1915.46 -1377.03 0 
2666.72 -1377.01 0 -740.101 -1375.84 0 -751.164 -1360.1 0 
-0.0803277 -1365.65 0 4.05881 -1360.08 0 566.092 -1360.06 0 
947.595 -1360.05 0 1920.56 -1360.03 0 2663.99 -1366.39 0 
2662.66 -1360.01 0 -763.114 -1343.1 0 16.6912 -1343.08 0 
562.991 -1343.06 0 937.706 -1343.05 0 1923.97 -1348.65 0 
1925.66 -1343.03 0 2659.12 -1343.01 0 -775.063 -1326.1 0 
29.3235 -1326.08 0 559.485 -1326.06 0 927.817 -1326.05 0 
1930.76 -1326.03 0 2655.58 -1326.01 0 -777.099 -1323.2 0 
-787.013 -1309.1 0 36.9236 -1315.85 0 41.9559 -1309.08 0 
554.849 -1309.06 0 554.938 -1309.38 0 917.928 -1309.05 0 
924.947 -1321.12 0 1935.85 -1309.02 0 2652.04 -1309.01 0 
-798.962 -1292.1 0 54.5884 -1292.07 0 548.457 -1292.06 0 
908.039 -1292.05 0 1940.95 -1292.02 0 2648.5 -1292 0 
-810.912 -1275.1 0 67.2207 -1275.07 0 544.863 -1275.06 0 
[...]
POINT_DATA 7410
SCALARS Pressure double
LOOKUP_TABLE default
3.0932710339 3.0932710339 3.0932710339 3.0932710339 3.0932710339 3.0932710339 3.0932710339 3.0932710339 3.0932710339 
3.0932710339 3.0932710339 3.0932710339 3.0932710339 3.0932710339 3.0932710339 3.0932710339 3.0932710339 3.0932710339 
3.0932710339 3.0932710339 3.0932710339 3.0932710339 3.0932710339 3.0932710339 3.0932710339 3.0932710339 3.0932710339 
3.0932710339 3.0932710339 3.0932710339 3.0932710339 3.0932710339 3.0932710339 3.0932710339 3.0932710339 3.0932710339 
3.0932710339 3.0932710339 3.0932710339 3.0932710339 3.0932710339 3.0932710339 3.0932710339 3.0932710339 3.0932710339 
3.0932710339 3.0932710339 3.0932710339 3.0932710339 3.0932710339 3.0932710339 3.0932710339 3.0932710339 3.0932710339 
3.0932710339 3.0932710339 3.0932710339 3.0932710339 3.0932710339 3.0932710339 3.0932710339 3.0932710339 3.0932710339 
3.0932710339 3.0932710339 3.0932710339 3.0932710339 3.0932710339 3.0932710339 3.0932710339 3.0932710339 3.0932710339 
3.0932710339 3.0932710339 3.0932710339 3.0932710339 3.0932710339 3.0932710339 3.0932710339 3.0932710339 3.0932710339 
3.0932710339 3.0932710339 3.0932710339 3.0932710339 3.0932710339 3.0932710339 3.0932710339 3.0932710339 3.0932710339 
3.0932710339 3.0932710339 3.0932710339 3.0932710339 3.0932710339 3.0932710339 3.0932710339 3.0932710339 3.0932710339 
3.0932710339 3.0932710339 3.0932710339 3.0932710339 3.0932710339 3.0932710339 3.0932710339 3.0932710339 3.0932710339 
3.0932710339 3.0932710339 3.0932710339 3.0932710339 3.0932710339 3.0932710339 3.0932710339 3.0932710339 3.0932710339 
3.0932710339 3.0932710339 3.0932710339 3.0932710339 3.0932710339 3.0932710339 3.0932710339 3.0932710339 3.0932710339 
3.0932710339 3.0932710339 3.0932710339 3.0932710339 3.0932710339 3.0932710339 3.0932710339 3.0932710339 3.0932710339 
3.0932710339 3.0932710339 3.0932710339 3.0932710339 3.0932710339 3.0932710339 3.0932710339 3.0932710339 3.0932710339 
3.0932710339 3.0932710339 3.0932710339 3.0932710339 3.0932710339 3.0932710339 3.0932710339 3.0932710339 3.0932710339 
3.0932710339 3.0932710339 3.0932710339 3.0932710339 3.0932710339 3.0932710339 3.0932710339 3.0932710339 3.0932710339 
3.0932710339 3.0932710339 3.0932710339 3.0932710339 3.0932710339 3.0932710339 3.0932710339 3.0932710339 3.0932710339 
3.0932710339 3.0932710339 3.0932710339 3.0932710339 3.0932710339 3.0932710339 3.0932710339 3.0932710339 3.0932710339 
3.0932710339 3.0932710339 3.0932710339 3.0932710339 3.0932710339 3.0932710339 3.0932710339 3.0932710339 3.0932710339 
3.0932710339 3.0932710339 3.0932710339 3.0932710339 3.0932710339 3.0932710339 3.0932710339 3.0932710339 3.0932710339 
3.0932710339 3.0932710339 3.0932710339 3.0932710339 3.0932710339 3.0932710339 3.0932710339 3.0932710339 3.0932710339 
3.0932710339 3.0932710339 3.0932710339 3.0932710339 3.0932710339 3.0932710339 3.0932710339 3.0932710339 3.0932710339 
3.0932710339 3.0932710339 3.0932710339 3.0932710339 3.0932710339 3.0932710339 3.0932710339 3.0932710339 3.0932710339 
3.0932710339 3.0932710339 3.0932710339 3.0932710339 3.0932710339 3.0932710339 3.0932710339 3.0932710339 3.0932710339 
3.0932710339 3.0932710339 3.0932710339 3.0932710339 3.0932710339 3.0932710339 3.0932710339 3.0932710339 3.0932710339 
3.0932710339 3.0932710339 3.0932710339 3.0932710339 3.0932710339 3.0932710339 3.0932710339 3.0932710339 3.0932710339 
3.0932710339 3.0932710339 3.0932710339 3.0932710339 3.0932710339 3.0932710339 3.0932710339 3.0932710339 3.0932710339 
3.0932710339 3.0932710339 3.0932710339 3.0932710339 3.0932710339 3.0932710339 3.0932710339 3.0932710339 3.0932710339 
3.0932710339 3.0932710339 3.0932710339 3.0932710339 3.0932710339 3.0932710339 3.0932710339 3.0932710339 3.0932710339 
3.0932710339 3.0932710339 3.0932710339 3.0932710339 3.0932710339 3.0932710339 3.0932710339 3.0932710339 3.0932710339 
3.0932710339 3.0932710339 3.0932710339 3.0932710339 3.0932710339 3.0932710339 3.0932710339 3.0932710339 3.0932710339 
3.0932710339 3.0932710339 3.0932710339 3.0932710339 3.0932710339 3.0932710339 3.0932710339 3.0932710339 3.0932710339 
3.1078652246 3.1078652246 3.1078652246 3.1078652246 3.0932710339 3.0932710339 3.1078652246 3.1078652246 3.1078652246 
3.1078652246 3.1078652246 3.1078652246 3.1078652246 3.1078652246 3.1078652246 3.1078652246 3.1078652246 3.0932710339 
3.0932710339 3.1078652246 3.1078652246 3.1078652246 3.1078652246 3.0932710339 3.0932710339 3.1078652246 3.1078652246 
3.0932710339 3.0932710339 3.1078652246 3.1078652246 3.1078652246 3.0932710339 3.0932710339 3.1078652246 3.1078652246 
3.1078652246 3.0932710339 3.0932710339 3.1078652246 3.1078652246 3.0932710339 3.0932710339 3.1078652246 3.1078652246 
3.1078652246 3.0932710339 3.0932710339 3.1078652246 3.1078652246 3.0932710339 3.0932710339 3.0932710339 3.1078652246 
3.1078652246 3.1078652246 3.0932710339 3.0932710339 3.1078652246 3.1078652246 3.0932710339 3.0932710339 3.1078652246 
3.1078652246 3.1078652246 3.1078652246 3.0932710339 3.0932710339 3.1078652246 3.1078652246 3.0932710339 3.0932710339 
3.1078652246 3.1078652246 3.1078652246 3.0932710339 3.0932710339 3.1078652246 3.1078652246 3.1078652246 3.0932710339 
3.0786768432 3.0786768432 3.0786768432 3.0786768432 3.0932710339 3.1078652246 3.1078652246 3.0932710339 3.0786768432 
3.0786768432 3.0786768432 3.0786768432 3.0932710339 3.1078652246 3.1078652246 3.1078652246 3.0932710339 3.0786768432 
3.0786768432 3.0786768432 3.0786768432 3.0786768432 3.0932710339 3.1078652246 3.1078652246 3.0932710339 3.0932710339 
3.0786768432 3.0786768432 3.0786768432 3.0786768432 3.0932710339 3.1078652246 3.1078652246 3.0932710339 3.0786768432 
3.0786768432 3.0786768432 3.0786768432 3.0932710339 3.1078652246 3.1078652246 3.1078652246 3.1078652246 3.0932710339 
3.0786768432 3.0786768432 3.0786768432 3.0786768432 3.0786768432 3.0932710339 3.1078652246 3.1078652246 3.0932710339 
3.0786768432 3.0786768432 3.0786768432 3.0786768432 3.0786768432 3.0786768432 3.0932710339 3.1078652246 3.1078652246 
3.1078652246 3.0932710339 3.0786768432 3.0786768432 3.0786768432 3.0932710339 3.1078652246 3.1078652246 3.0932710339 
3.0786768432 3.0786768432 3.0932710339 3.1078652246 3.1078652246 3.0932710339 3.0786768432 3.0786768432 3.0932710339 
3.1078652246 3.1078652246 3.1078652246 3.0932710339 3.0786768432 3.0786768432 3.0786768432 3.0786768432 3.0932710339 
3.1078652246 3.1078652246 3.0932710339 3.0932710339 3.0786768432 3.0786768432 3.0932710339 3.1078652246 3.1078652246 
3.1078652246 3.0932710339 3.0786768432 3.0786768432 3.0932710339 3.1078652246 3.1078652246 3.0932710339 3.0786768432 
3.0786768432 3.0786768432 3.0786768432 3.0932710339 3.0932710339 3.1078652246 3.1078652246 3.1078652246 3.0932710339 
3.0786768432 3.0786768432 3.0932710339 3.1078652246 3.1078652246 3.0932710339 3.0786768432 3.0786768432 3.0932710339 
3.1078652246 3.1078652246 3.0932710339 3.0786768432 3.0786768432 3.0786768432 3.0786768432 3.0932710339 3.1078652246 
3.1078652246 3.0932710339 3.0786768432 3.0786768432 3.0932710339 3.1078652246 3.1078652246 3.1078652246 3.0932710339 
3.0786768432 3.0786768432 3.0932710339 3.1078652246 3.1078652246 3.1078652246 3.0932710339 3.0786768432 3.0786768432 
3.0786768432 3.0786768432 3.0932710339 3.1078652246 3.1078652246 3.0932710339 3.0786768432 3.0786768432 3.0932710339 
3.1078652246 3.1078652246 3.0932710339 3.0786768432 3.0786768432 3.0932710339 3.1078652246 3.1078652246 3.1078652246 
3.0932710339 3.0932710339 3.0786768432 3.0786768432 3.0786768432 3.0932710339 3.1078652246 3.1078652246 3.0932710339 
3.0786768432 3.0786768432 3.0932710339 3.0932710339 3.1078652246 3.1224594153 3.1224594153 3.1224594153 3.1224594153 
3.1078652246 3.0932710339 3.0786768432 3.0786768432 3.0786768432 3.0932710339 3.1078652246 3.1224594153 3.1224594153 
3.1224594153 3.1224594153 3.1078652246 3.0932710339 3.0786768432 3.0786768432 3.0932710339 3.1078652246 3.1224594153 
3.1224594153 3.1224594153 3.1224594153 3.1224594153 3.1078652246 3.1078652246 3.0932710339 3.0786768432 3.0786768432 
3.0786768432 3.0932710339 3.1078652246 3.1078652246 3.1224594153 3.1224594153 3.1224594153 3.1078652246 3.0932710339 
3.0786768432 3.0786768432 3.0932710339 3.1078652246 3.1224594153 3.1224594153 3.1078652246 3.0932710339 3.0786768432 
3.0786768432 3.0786768432 3.0932710339 3.1078652246 3.1224594153 3.1224594153 3.1224594153 3.1224594153 3.1078652246 
3.0932710339 3.0786768432 3.0786768432 3.0786768432 3.0932710339 3.1078652246 3.1224594153 3.1224594153 3.1078652246 
3.0932710339 3.0786768432 3.0786768432 3.0932710339 3.1078652246 3.1224594153 3.1224594153 3.1224594153 3.1224594153 
3.1078652246 3.0932710339 3.0786768432 3.0786768432 3.0932710339 3.1078652246 3.1078652246 3.1224594153 3.1224594153 
3.1078652246 3.1078652246 3.0932710339 3.0786768432 3.0786768432 3.0932710339 3.1078652246 3.1224594153 3.1224594153 
3.1224594153 3.1224594153 3.1078652246 3.0932710339 3.0786768432 3.0786768432 3.0786768432 3.0932710339 3.1078652246 
3.1224594153 3.1224594153 3.1224594153 3.1078652246 3.0932710339 3.0786768432 3.0786768432 3.0932710339 3.1078652246 
3.1224594153 3.1224594153 3.1078652246 3.0932710339 3.0786768432 3.0786768432 3.0932710339 3.1078652246 3.1078652246 
3.1224594153 3.1224594153 3.1224594153 3.1224594153 3.1078652246 3.0932710339 3.0786768432 3.0786768432 3.0932710339 
3.0932710339 3.1078652246 3.1224594153 3.1224594153 3.1078652246 3.0932710339 3.0786768432 3.0786768432 3.0932710339 
3.1078652246 3.1224594153 3.1224594153 3.1224594153 3.1078652246 3.1078652246 3.0932710339 3.0786768432 3.0786768432 
3.0932710339 3.1078652246 3.1224594153 3.1224594153 3.1078652246 3.0932710339 3.0786768432 3.0786768432 3.0932710339 
3.1078652246 3.1078652246 3.1224594153 3.1224594153 3.1224594153 3.1078652246 3.0932710339 3.0786768432 3.0786768432 
3.0932710339 3.1078652246 3.1224594153 3.1224594153 3.1224594153 3.1078652246 3.0932710339 3.0786768432 3.0786768432 
3.0932710339 3.1078652246 3.1224594153 3.1224594153 3.1078652246 3.0932710339 3.0786768432 3.0786768432 3.0932710339 
3.1078652246 3.1224594153 3.1224594153 3.1078652246 3.1078652246 3.0932710339 3.0786768432 3.0786768432 3.0932710339 
3.1078652246 3.1078652246 3.1224594153 3.1224594153 3.1224594153 3.1078652246 3.0932710339 3.0786768432 3.0786768432 
3.0786768432 3.0932710339 3.0932710339 3.1078652246 3.1224594153 3.1224594153 3.1224594153 3.1078652246 3.0932710339 
3.0786768432 3.0786768432 3.0786768432 3.0932710339 3.1078652246 3.1224594153 3.1224594153 3.1078652246 3.0932710339 
3.0786768432 3.0640826525 3.0640826525 3.0640826525 3.0786768432 3.0932710339 3.1078652246 3.1224594153 3.1224594153 
3.1224594153 3.1078652246 3.0932710339 3.0786768432 3.0640826525 3.0640826525 3.0640826525 3.0640826525 3.0640826525 
3.0640826525 3.0640826525 3.0786768432 3.0932710339 3.1078652246 3.1224594153 3.137053606 3.137053606 3.137053606 
3.137053606 3.137053606 3.137053606 3.1224594153 3.1078652246 3.0932710339 3.0786768432 3.0640826525 3.0640826525 
3.0640826525 3.0640826525 3.0786768432 3.0932710339 3.1078652246 3.1078652246 3.1224594153 3.1224594153 3.137053606 
3.137053606 3.137053606 3.137053606 3.1224594153 3.1078652246 3.0932710339 3.0932710339 3.0786768432 3.0640826525 
3.0640826525 3.0640826525 3.0786768432 3.0932710339 3.1078652246 3.1224594153 3.137053606 3.137053606 3.137053606 
3.1224594153 3.1224594153 3.1078652246 3.1078652246 3.0932710339 3.0786768432 3.0640826525 3.0640826525 3.0640826525 
3.0786768432 3.0932710339 3.1078652246 3.1224594153 3.137053606 3.137053606 3.137053606 3.1224594153 3.1078652246 
3.0932710339 3.0786768432 3.0640826525 3.0640826525 3.0640826525 3.0786768432 3.0932710339 3.1078652246 3.1224594153 
3.1224594153 3.137053606 3.137053606 3.137053606 3.1224594153 3.1078652246 3.0932710339 3.0786768432 3.0640826525 
3.0640826525 3.0640826525 3.0786768432 3.0932710339 3.1078652246 3.1224594153 3.137053606 3.137053606 3.137053606 
3.137053606 3.1224594153 3.1078652246 3.0932710339 3.0786768432 3.0640826525 3.0640826525 3.0786768432 3.0932710339 
3.1078652246 3.1078652246 3.1224594153 3.137053606 3.137053606 3.137053606 3.1224594153 3.1078652246 3.0932710339 
3.0786768432 3.0640826525 3.0640826525 3.0640826525 3.0640826525 3.0786768432 3.0932710339 3.1078652246 3.1224594153 
3.1224594153 3.137053606 3.137053606 3.1224594153 3.1078652246 3.0932710339 3.0786768432 3.0640826525 3.0640826525 
3.0786768432 3.0932710339 3.0932710339 3.1078652246 3.1224594153 3.137053606 3.137053606 3.137053606 3.137053606 
3.1224594153 3.1078652246 3.0932710339 3.0786768432 3.0786768432 3.0786768432 3.0786768432 3.0786768432 3.0786768432 
3.0640826525 3.0640826525 3.0640826525 3.0786768432 3.0932710339 3.1078652246 3.1224594153 3.137053606 3.137053606 
3.1224594153 3.1078652246 3.1078652246 3.0932710339 3.0932710339 3.0786768432 3.0786768432 3.0786768432 3.0786768432 
3.0786768432 3.0786768432 3.0786768432 3.0640826525 3.0640826525 3.0640826525 3.0786768432 3.0932710339 3.1078652246 
3.1224594153 3.1224594153 3.137053606 3.137053606 3.137053606 3.1224594153 3.1078652246 3.0932710339 3.0786768432 
3.0786768432 3.0786768432 3.0786768432 3.0786768432 3.0786768432 3.0640826525 3.0640826525 3.0786768432 3.0932710339 
3.1078652246 3.1078652246 3.1224594153 3.137053606 3.137053606 3.1224594153 3.1224594153 3.1078652246 3.0932710339 
3.0786768432 3.0786768432 3.0786768432 3.0786768432 3.0786768432 3.0786768432 3.0640826525 3.0640826525 3.0786768432 
3.0932710339 3.1078652246 3.1224594153 3.137053606 3.137053606 3.137053606 3.1224594153 3.1078652246 3.0932710339 
3.0786768432 3.0786768432 3.0786768432 3.0786768432 3.0786768432 3.0640826525 3.0640826525 3.0786768432 3.0932710339 
3.1078652246 3.1224594153 3.1224594153 3.137053606 3.137053606 3.1224594153 3.1078652246 3.0932710339 3.0786768432 
3.0786768432 3.0786768432 3.0640826525 3.0640826525 3.0640826525 3.0786768432 3.0932710339 3.1078652246 3.1078652246 
3.1224594153 3.137053606 3.137053606 3.137053606 3.137053606 3.1224594153 3.1078652246 3.0932710339 3.0786768432 
3.0786768432 3.0786768432 3.0786768432 3.0640826525 3.0640826525 3.0640826525 3.0786768432 3.0932710339 3.1078652246 
3.1224594153 3.1224594153 3.137053606 3.137053606 3.1224594153 3.1078652246 3.0932710339 3.0786768432 3.0786768432 
3.0786768432 3.0640826525 3.0640826525 3.0786768432 3.0932710339 3.1078652246 3.1224594153 3.137053606 3.137053606 
3.137053606 3.1224594153 3.1078652246 3.0932710339 3.0786768432 3.0786768432 3.0786768432 3.0786768432 3.0640826525 
3.0494884618 3.0494884618 3.0494884618 3.0494884618 3.0640826525 3.0786768432 3.0932710339 3.0932710339 3.1078652246 
3.1224594153 3.137053606 3.137053606 3.1224594153 3.1078652246 3.0932710339 3.0786768432 3.0786768432 3.0786768432 
3.0640826525 3.0494884618 3.0494884618 3.0494884618 3.0494884618 3.0640826525 3.0786768432 3.0932710339 3.1078652246 
3.1078652246 3.1224594153 3.1224594153 3.137053606 3.137053606 3.1224594153 3.1078652246 3.0932710339 3.0786768432 
3.0786768432 3.0786768432 3.0786768432 3.0786768432 3.0640826525 3.0494884618 3.0494884618 3.0494884618 3.0494884618 
3.0640826525 3.0786768432 3.0932710339 3.1078652246 3.1224594153 3.137053606 3.137053606 3.137053606 3.1224594153 
3.1078652246 3.0932710339 3.0786768432 3.0786768432 3.0786768432 3.0640826525 3.0494884618 3.0494884618 3.0494884618 
3.0640826525 3.0786768432 3.0932710339 3.1078652246 3.1224594153 3.137053606 3.137053606 3.1224594153 3.1078652246 
3.0932710339 3.0786768432 3.0786768432 3.0786768432 3.0640826525 3.0640826525 3.0494884618 3.0494884618 3.0640826525 
3.0786768432 3.0932710339 3.1078652246 3.1224594153 3.1224594153 3.137053606 3.137053606 3.137053606 3.1224594153 
3.1078652246 3.0932710339 3.0786768432 3.0786768432 3.0786768432 3.0640826525 3.0494884618 3.0494884618 3.0494884618 
3.0640826525 3.0786768432 3.0932710339 3.0932710339 3.1078652246 3.1078652246 3.1224594153 3.137053606 3.137053606 
3.1224594153 3.1078652246 3.0932710339 3.0786768432 3.0786768432 3.0786768432 3.0786768432 3.0640826525 3.0494884618 
3.0494884618 3.0494884618 3.0640826525 3.0786768432 3.0932710339 3.1078652246 3.1224594153 3.137053606 3.1516477967 
3.1516477967 3.1516477967 3.137053606 3.1224594153 3.1078652246 3.0932710339 3.0932710339 3.0786768432 3.0786768432 
3.0786768432 3.0640826525 3.0494884618 3.0494884618 3.0494884618 3.0640826525 3.0786768432 3.0932710339 3.1078652246 
3.1224594153 3.137053606 3.137053606 3.1516477967 3.1516477967 3.1516477967 3.1516477967 3.137053606 3.1224594153 
3.1078652246 3.0932710339 3.0786768432 3.0786768432 3.0786768432 3.0640826525 3.0494884618 3.0494884618 3.0640826525 
3.0786768432 3.0932710339 3.1078652246 3.1224594153 3.137053606 3.1516477967 3.1516477967 3.137053606 3.1224594153 
3.1078652246 3.1078652246 3.0932710339 3.0786768432 3.0786768432 3.0786768432 3.0640826525 3.0494884618 3.0494884618 
3.0494884618 3.0640826525 3.0786768432 3.0932710339 3.1078652246 3.1078652246 3.1224594153 3.1224594153 3.137053606 
3.1516477967 3.1516477967 3.1516477967 3.137053606 3.1224594153 3.1078652246 3.0932710339 3.0786768432 3.0786768432 
3.0786768432 3.0640826525 3.0494884618 3.0348942711 3.0348942711 3.0348942711 3.0494884618 3.0640826525 3.0786768432 
3.0932710339 3.0932710339 3.1078652246 3.1224594153 3.137053606 3.1516477967 3.1516477967 3.1516477967 3.137053606 
3.1224594153 3.1078652246 3.0932710339 3.0786768432 3.0786768432 3.0786768432 3.0786768432 3.0786768432 3.0640826525 
3.0640826525 3.0494884618 3.0348942711 3.0348942711 3.0348942711 3.0348942711 3.0494884618 3.0494884618 3.0640826525 
3.0786768432 3.0786768432 3.0932710339 3.1078652246 3.1224594153 3.137053606 3.137053606 3.1516477967 3.1516477967 
3.137053606 3.1224594153 3.1078652246 3.0932710339 3.0786768432 3.0786768432 3.0786768432 3.0640826525 3.0494884618 
3.0348942711 3.0348942711 3.0348942711 3.0494884618 3.0640826525 3.0786768432 3.0932710339 3.1078652246 3.1224594153 
3.137053606 3.1516477967 3.1516477967 3.137053606 3.137053606 3.1224594153 3.1078652246 3.0932710339 3.0786768432 
3.0786768432 3.0786768432 3.0786768432 3.0640826525 3.0494884618 3.0348942711 3.0348942711 3.0348942711 3.0348942711 
3.0494884618 3.0640826525 3.0640826525 3.0786768432 3.0932710339 3.1078652246 3.1224594153 3.137053606 3.1516477967 
3.1516477967 3.1516477967 3.137053606 3.1224594153 3.1078652246 3.0932710339 3.0786768432 3.0786768432 3.0786768432 
3.0786768432 3.0786768432 3.0786768432 3.0640826525 3.0494884618 3.0348942711 3.0348942711 3.0494884618 3.0640826525 
3.0786768432 3.0932710339 3.1078652246 3.1224594153 3.137053606 3.1516477967 3.1516477967 3.137053606 3.1224594153 
3.1078652246 3.0932710339 3.0786768432 3.0640826525 3.0640826525 3.0640826525 3.0786768432 3.0786768432 3.0786768432 
3.0786768432 3.0640826525 3.0494884618 3.0348942711 3.0348942711 3.0348942711 3.0494884618 3.0640826525 3.0640826525 
3.0786768432 3.0932710339 3.1078652246 3.1078652246 3.1224594153 3.137053606 3.137053606 3.1516477967 3.1516477967 
3.137053606 3.1224594153 3.1078652246 3.1078652246 3.0932710339 3.0786768432 3.0640826525 3.0640826525 3.0640826525 
3.0640826525 3.0786768432 3.0786768432 3.0786768432 3.0786768432 3.0786768432 3.0786768432 3.0786768432 3.0786768432 
3.0786768432 3.0640826525 3.0494884618 3.0494884618 3.0348942711 3.0348942711 3.0203000804 3.0203000804 3.0203000804 
3.0203000804 3.0348942711 3.0494884618 3.0640826525 3.0786768432 3.0786768432 3.0932710339 3.1078652246 3.1224594153 
3.137053606 2.9473291268 2.9473291268 2.9619233175 2.9619233175 2.9765175082 2.9765175082 2.991111699 2.991111699 
3.0057058897 3.0057058897 3.0203000804 3.0203000804 3.0348942711 3.0348942711 3.0494884618 3.0494884618 3.0640826525 
3.0640826525 3.0786768432 3.0786768432 3.0932710339 3.0932710339 3.1078652246 3.1078652246 3.1224594153 3.1224594153 
3.137053606 3.137053606 2.9473291268 2.9619233175 2.9765175082 2.991111699 3.0057058897 3.0203000804 3.0348942711 
3.0494884618 3.0640826525 3.0786768432 3.0932710339 3.1078652246 3.1224594153 3.137053606 2.9473291268 2.9619233175 