# vtk DataFile Version 4.2
vtk output
ASCII
DATASET POLYDATA
POINTS 8556 float
2285.11 -3237.17 5800 2290.83 -3245.72 5800 2293.81 -3250.17 5800 
2846.37 -3250.15 5800 2870.85 -3239 5800 2874.91 -3237.15 5800 
2276.54 -3224.17 5800 2899.85 -3225.79 5800 2903.45 -3224.15 5800 
2268.58 -3211.17 5800 2928.85 -3212.58 5800 2931.99 -3211.15 5800 
2260.72 -3198.17 5800 2261.83 -3200.01 5800 2948.89 -3198.14 5800 
2252.85 -3185.17 5800 2957.39 -3185.14 5800 2244.98 -3172.17 5800 
2957.86 -3184.17 5800 2963 -3172.14 5800 2237.11 -3159.17 5800 
2968.56 -3159.14 5800 2229.25 -3146.17 5800 2232.83 -3152.1 5800 
2974.12 -3146.14 5800 2221.38 -3133.16 5800 2979.68 -3133.14 5800 
2213.51 -3120.16 5800 2985.23 -3120.14 5800 2205.64 -3107.16 5800 
2986.86 -3116.33 5800 2990.79 -3107.14 5800 2197.77 -3094.16 5800 
2203.84 -3104.18 5800 2996.35 -3094.13 5800 2189.91 -3081.16 5800 
3001.91 -3081.13 5800 2182.04 -3068.16 5800 3007.47 -3068.13 5800 
2174.17 -3055.16 5800 2174.84 -3056.27 5800 3013.03 -3055.13 5800 
2166.3 -3042.16 5800 3015.87 -3048.49 5800 3018.59 -3042.13 5800 
2158.43 -3029.16 5800 3024.15 -3029.13 5800 2150.57 -3016.16 5800 
3029.71 -3016.13 5800 2142.7 -3003.16 5800 2145.84 -3008.35 5800 
3035.27 -3003.13 5800 2134.83 -2990.16 5800 3040.82 -2990.13 5800 
2126.96 -2977.16 5800 3044.88 -2980.65 5800 3046.38 -2977.12 5800 
2119.09 -2964.16 5800 3051.94 -2964.12 5800 2111.23 -2951.15 5800 
2116.85 -2960.44 5800 3057.5 -2951.12 5800 2103.36 -2938.15 5800 
3063.06 -2938.12 5800 2095.53 -2925.15 5800 3068.62 -2925.12 5800 
2087.4 -2912.15 5800 2087.85 -2912.81 5800 3073.88 -2912.81 5800 
3074.17 -2912.12 5800 2078.46 -2899.15 5800 3079.43 -2899.12 5800 
2053.19 -2886.15 5800 2058.85 -2888.41 5800 3084.32 -2886.12 5800 
2020.62 -2873.15 5800 2029.85 -2876.84 5800 3088.55 -2873.11 5800 
1988.04 -2860.15 5800 2000.85 -2865.26 5800 3092.78 -2860.11 5800 
1955.47 -2847.15 5800 1971.85 -2853.69 5800 3097.02 -2847.11 5800 
1922.89 -2834.15 5800 1942.85 -2842.12 5800 3101.25 -2834.11 5800 
1890.32 -2821.15 5800 1913.85 -2830.54 5800 3102.89 -2829.08 5800 
3105.48 -2821.11 5800 1877.75 -2808.15 5800 1884.85 -2818.97 5800 
3109.72 -2808.11 5800 1872.86 -2795.15 5800 3113.95 -2795.11 5800 
1872.06 -2782.15 5800 3118.18 -2782.11 5800 1872.27 -2769.15 5800 
3122.42 -2769.11 5800 1872.47 -2756.15 5800 3126.65 -2756.1 5800 
1872.68 -2743.15 5800 3130.88 -2743.1 5800 1872.88 -2730.15 5800 
3131.9 -2739.99 5800 3135.12 -2730.1 5800 1873.09 -2717.14 5800 
3139.35 -2717.1 5800 1873.29 -2704.14 5800 3143.58 -2704.1 5800 
1873.5 -2691.14 5800 3147.82 -2691.1 5800 1873.7 -2678.14 5800 
3152.05 -2678.1 5800 1873.91 -2665.14 5800 3156.29 -2665.1 5800 
1874.11 -2652.14 5800 3160.52 -2652.09 5800 1874.31 -2639.14 5800 
3160.91 -2650.91 5800 3164.75 -2639.09 5800 1874.52 -2626.14 5800 
3168.99 -2626.09 5800 1874.72 -2613.14 5800 3173.22 -2613.09 5800 
1874.93 -2600.14 5800 3177.45 -2600.09 5800 1875.13 -2587.13 5800 
3181.69 -2587.09 5800 1875.34 -2574.13 5800 3185.92 -2574.09 5800 
1875.54 -2561.13 5800 3189.91 -2561.83 5800 3190.15 -2561.09 5800 
1875.75 -2548.13 5800 3194.39 -2548.09 5800 1875.95 -2535.13 5800 
3198.62 -2535.08 5800 1876.16 -2522.13 5800 3202.85 -2522.08 5800 
1876.36 -2509.13 5800 3210.62 -2509.08 5800 1876.56 -2496.13 5800 
3218.92 -2500.63 5800 3223.39 -2496.08 5800 1876.77 -2483.13 5800 
3236.16 -2483.08 5800 1876.97 -2470.13 5800 3247.92 -2471.1 5800 
3248.93 -2470.08 5800 1877.18 -2457.12 5800 3261.7 -2457.08 5800 
1877.38 -2444.12 5800 3274.47 -2444.07 5800 1877.59 -2431.12 5800 
3276.93 -2439.32 5800 3279.55 -2431.07 5800 1877.78 -2418.12 5800 
3282.11 -2418.07 5800 1877.98 -2405.12 5800 3284.67 -2405.07 5800 
1878.18 -2392.12 5800 3287.24 -2392.07 5800 1878.37 -2379.12 5800 
3289.87 -2379.07 5800 1878.55 -2366.12 5800 3292.32 -2366.07 5800 
1878.73 -2353.12 5800 3294.73 -2353.07 5800 1878.91 -2340.12 5800 
3297.1 -2340.07 5800 1879.09 -2327.11 5800 3299.44 -2327.07 5800 
1879.27 -2314.11 5800 3301.73 -2314.06 5800 1879.45 -2301.11 5800 
3304 -2301.06 5800 1879.63 -2288.11 5800 3305.94 -2289.73 5800 
3306.15 -2288.06 5800 1879.81 -2275.11 5800 3307.83 -2275.06 5800 
1879.99 -2262.11 5800 3309.51 -2262.06 5800 1880.17 -2249.11 5800 
3311.19 -2249.06 5800 1880.34 -2236.11 5800 3312.87 -2236.06 5800 
1880.52 -2223.11 5800 3314.55 -2223.06 5800 1880.7 -2210.11 5800 
3316.23 -2210.06 5800 1880.88 -2197.1 5800 3317.91 -2197.05 5800 
1881.06 -2184.1 5800 3319.59 -2184.05 5800 1881.24 -2171.1 5800 
3321.27 -2171.05 5800 1881.42 -2158.1 5800 3322.95 -2158.05 5800 
1881.6 -2145.1 5800 3324.62 -2145.05 5800 1881.78 -2132.1 5800 
3326.3 -2132.05 5800 1881.96 -2119.1 5800 3327.98 -2119.05 5800 
1882.14 -2106.1 5800 3329.66 -2106.05 5800 1882.32 -2093.1 5800 
3331.34 -2093.05 5800 1882.5 -2080.09 5800 3333.02 -2080.04 5800 
1882.68 -2067.09 5800 3334.7 -2067.04 5800 1881.38 -2054.09 5800 
3334.96 -2065.06 5800 3336.38 -2054.04 5800 1877.65 -2041.09 5800 
3338.06 -2041.04 5800 1873.91 -2028.09 5800 3339.74 -2028.04 5800 
1870.17 -2015.09 5800 3341.42 -2015.04 5800 1866.43 -2002.09 5800 
3343.03 -2002.04 5800 1862.69 -1989.09 5800 3344.5 -1989.04 5800 
1858.95 -1976.09 5800 3345.84 -1976.04 5800 1855.21 -1963.09 5800 
1855.91 -1965.53 5800 3347.18 -1963.04 5800 1851.47 -1950.09 5800 
3348.52 -1950.03 5800 1847.73 -1937.09 5800 3349.86 -1937.03 5800 
1844.51 -1924.08 5800 3351.2 -1924.03 5800 1844.58 -1911.08 5800 
3352.54 -1911.03 5800 1844.62 -1898.08 5800 3353.88 -1898.03 5800 
1846.32 -1885.08 5800 3355.22 -1885.03 5800 1849.52 -1872.08 5800 
3356.56 -1872.03 5800 1852.72 -1859.08 5800 3357.9 -1859.03 5800 
1855.92 -1846.09 5800 1855.92 -1846.08 5800 3359.24 -1846.03 5800 
1859.13 -1833.08 5800 3360.58 -1833.03 5800 1862.33 -1820.08 5800 
3361.92 -1820.02 5800 1865.53 -1807.07 5800 3363.26 -1807.02 5800 
1868.73 -1794.07 5800 3363.98 -1800.1 5800 3364.6 -1794.02 5800 
1871.94 -1781.07 5800 3365.94 -1781.02 5800 1875.14 -1768.07 5800 
3367.28 -1768.02 5800 1878.34 -1755.07 5800 3368.62 -1755.02 5800 
1881.54 -1742.07 5800 3369.96 -1742.02 5800 1884.75 -1729.07 5800 
3371.3 -1729.02 5800 1884.93 -1728.31 5800 1887.95 -1716.07 5800 
3372.64 -1716.02 5800 1891.15 -1703.07 5800 3373.98 -1703.01 5800 
1894.35 -1690.06 5800 3372.77 -1690.01 5800 1897.56 -1677.06 5800 
3368.71 -1677.01 5800 1900.76 -1664.06 5800 3363.99 -1666.4 5800 
3362.92 -1664.01 5800 1903.96 -1651.06 5800 3357.13 -1651.01 5800 
1907.16 -1638.06 5800 3351.34 -1638.01 5800 1910.36 -1625.06 5800 
3345.55 -1625.01 5800 1913.57 -1612.06 5800 3339.76 -1612.01 5800 
1913.94 -1610.54 5800 1916.77 -1599.06 5800 3334.99 -1601.31 5800 
3334.07 -1599.01 5800 1919.97 -1586.06 5800 3330.75 -1586.01 5800 
1923.18 -1573.05 5800 3329.5 -1573.01 5800 1926.38 -1560.05 5800 
3328.25 -1560.01 5800 1929.58 -1547.05 5800 3327 -1547 5800 
1932.78 -1534.05 5800 3325.75 -1534 5800 1935.85 -1521.05 5800 
3324.5 -1521 5800 1937.55 -1508.05 5800 3323.26 -1508 5800 
1939.09 -1495.05 5800 3322.01 -1495 5800 1940.63 -1482.05 5800 
3321.07 -1482 5800 1942.17 -1469.05 5800 3320.73 -1469 5800 
1942.95 -1462.45 5800 1943.71 -1456.05 5800 3320.43 -1456 5800 
1945.26 -1443.04 5800 3320.16 -1443 5800 1946.8 -1430.04 5800 
3319.92 -1430 5800 1948.34 -1417.04 5800 3319.7 -1416.99 5800 
1949.88 -1404.04 5800 3319.5 -1403.99 5800 1951.42 -1391.04 5800 
3319.32 -1390.99 5800 1952.96 -1378.04 5800 3319.15 -1377.99 5800 
1954.51 -1365.04 5800 3319.34 -1364.99 5800 1955.9 -1352.04 5800 
3319.72 -1351.99 5800 1956.89 -1339.04 5800 3320.1 -1338.99 5800 
1957.88 -1326.03 5800 3320.48 -1325.99 5800 1958.87 -1313.03 5800 
3320.86 -1312.99 5800 1959.86 -1300.03 5800 3321.24 -1299.99 5800 
1960.86 -1287.03 5800 3321.72 -1286.98 5800 1961.85 -1274.03 5800 
3322.23 -1273.98 5800 1962.84 -1261.03 5800 3322.75 -1260.98 5800 
1963.83 -1248.03 5800 3323.28 -1247.98 5800 1964.83 -1235.03 5800 
3323.81 -1234.98 5800 1966.02 -1222.03 5800 3324.42 -1221.98 5800 
1967.14 -1209.03 5800 3325.05 -1208.98 5800 1968.19 -1196.02 5800 
3325.68 -1195.98 5800 1969.6 -1183.02 5800 3326.32 -1182.98 5800 
1971.37 -1170.02 5800 3326.95 -1169.98 5800 1971.98 -1165.58 5800 
1973.18 -1157.02 5800 3327.58 -1156.97 5800 1974.92 -1144.02 5800 
3328.22 -1143.97 5800 1976.69 -1131.02 5800 3330.06 -1130.97 5800 
1978.46 -1118.02 5800 3333.92 -1117.97 5800 1986.8 -1105.02 5800 
3335.03 -1114.23 5800 3337.77 -1104.97 5800 1996.01 -1092.02 5800 
3341.63 -1091.97 5800 2000.13 -1079.01 5800 3345.49 -1078.97 5800 
2000.99 -1075.72 5800 2002.62 -1066.01 5800 3346.89 -1065.97 5800 
2004.89 -1053.01 5800 3347.69 -1052.97 5800 2007.27 -1040.01 5800 
3348.11 -1039.96 5800 2009.76 -1027.01 5800 2530.15 -1026.99 5800 
2552.01 -1036.61 5800 2581.01 -1037.42 5800 2605.47 -1026.99 5800 
3346.44 -1026.96 5800 2012.39 -1014.01 5800 2500.61 -1013.99 5800 
2523.01 -1023.85 5800 2610.01 -1025.05 5800 2635.96 -1013.99 5800 
3344.77 -1013.96 5800 2015.14 -1001.01 5800 2471.07 -1000.99 5800 
2494.01 -1011.09 5800 2639.01 -1012.69 5800 2666.45 -1000.99 5800 
3342.99 -1000.96 5800 2018.04 -988.006 5800 2438.76 -987.992 5800 
2465.01 -998.394 5800 2668.01 -1000.32 5800 2697.02 -988.156 5800 
2697.44 -987.983 5800 3341.15 -987.961 5800 2021.1 -975.005 5800 
2405.66 -974.992 5800 2407.01 -975.908 5800 2436.01 -986.944 5800 
2726.02 -976.508 5800 2728.64 -974.981 5800 3339.3 -974.96 5800 
2023.78 -962.004 5800 2390.68 -961.992 5800 2747.41 -961.979 5800 
3337.46 -961.959 5800 2026.39 -949.003 5800 2380.78 -948.991 5800 
2755.02 -955.366 5800 2758.01 -948.978 5800 3335.62 -948.958 5800 
2028.99 -936.002 5800 2374.63 -935.99 5800 2378.01 -944.351 5800 
2764.1 -935.977 5800 3335.04 -944.901 5800 3333.85 -935.957 5800 
2030 -930.986 5800 2030.92 -923.001 5800 2369.37 -922.989 5800 
2770.19 -922.975 5800 3332.12 -922.956 5800 2032.47 -910 5800 
2364.11 -909.988 5800 2776.27 -909.974 5800 3330.41 -909.955 5800 
2034.03 -896.999 5800 2358.86 -896.988 5800 2782.36 -896.973 5800 
3328.71 -896.954 5800 2035.59 -883.998 5800 2353.6 -883.987 5800 
[...]
POINT_DATA 8556
SCALARS Pressure double
LOOKUP_TABLE default
3.0932710339 3.0932710339 3.0932710339 3.0932710339 3.0932710339 3.0932710339 3.0932710339 3.0932710339 3.0932710339 
3.0932710339 3.0932710339 3.0932710339 3.0932710339 3.0932710339 3.0932710339 3.0932710339 3.0932710339 3.0932710339 
3.0932710339 3.0932710339 3.0932710339 3.0932710339 3.0932710339 3.0932710339 3.0932710339 3.0932710339 3.0932710339 
3.0932710339 3.0932710339 3.0932710339 3.0932710339 3.0932710339 3.0932710339 3.0932710339 3.0932710339 3.0932710339 
3.0932710339 3.0932710339 3.0932710339 3.0932710339 3.0932710339 3.0932710339 3.0932710339 3.0932710339 3.0932710339 
3.0932710339 3.0932710339 3.0932710339 3.0932710339 3.0932710339 3.0932710339 3.0932710339 3.0932710339 3.0932710339 
3.0932710339 3.0932710339 3.0932710339 3.0932710339 3.0932710339 3.0932710339 3.0932710339 3.0932710339 3.0932710339 
3.0932710339 3.0932710339 3.0932710339 3.0932710339 3.0932710339 3.0932710339 3.0932710339 3.0932710339 3.0932710339 
3.0932710339 3.0932710339 3.0932710339 3.0932710339 3.0932710339 3.0932710339 3.0932710339 3.0932710339 3.0932710339 
3.0932710339 3.0932710339 3.0932710339 3.0932710339 3.0932710339 3.0932710339 3.0932710339 3.0932710339 3.0932710339 
3.0932710339 3.0932710339 3.0932710339 3.0932710339 3.0932710339 3.0932710339 3.0932710339 3.0932710339 3.0932710339 
3.0932710339 3.0932710339 3.0932710339 3.0932710339 3.0932710339 3.0932710339 3.0932710339 3.0932710339 3.0932710339 
3.0932710339 3.0932710339 3.0932710339 3.0932710339 3.0932710339 3.0932710339 3.0932710339 3.0932710339 3.0932710339 
3.0932710339 3.0932710339 3.0932710339 3.0932710339 3.0932710339 3.0932710339 3.0932710339 3.0932710339 3.0932710339 
3.0932710339 3.0932710339 3.0932710339 3.0932710339 3.0932710339 3.0932710339 3.0932710339 3.0932710339 3.0932710339 
3.0932710339 3.0932710339 3.0932710339 3.0932710339 3.0932710339 3.0932710339 3.0932710339 3.0932710339 3.0932710339 
3.0932710339 3.0932710339 3.0932710339 3.0932710339 3.0932710339 3.0932710339 3.0932710339 3.0932710339 3.0932710339 
3.0932710339 3.0932710339 3.0932710339 3.0932710339 3.0932710339 3.0932710339 3.0932710339 3.0932710339 3.0932710339 
3.0932710339 3.0932710339 3.0932710339 3.0932710339 3.0932710339 3.0932710339 3.0932710339 3.0932710339 3.0932710339 
3.0932710339 3.0932710339 3.0932710339 3.0932710339 3.0932710339 3.0932710339 3.0932710339 3.0932710339 3.0932710339 
3.0932710339 3.0932710339 3.0932710339 3.0932710339 3.0932710339 3.0932710339 3.0932710339 3.0932710339 3.0932710339 
3.0932710339 3.0932710339 3.0932710339 3.0932710339 3.0932710339 3.0932710339 3.0932710339 3.0932710339 3.0932710339 
3.0932710339 3.0932710339 3.0932710339 3.0932710339 3.0932710339 3.0932710339 3.0932710339 3.0932710339 3.0932710339 
3.0932710339 3.0932710339 3.0932710339 3.0932710339 3.0932710339 3.0932710339 3.0932710339 3.0932710339 3.0932710339 
3.0932710339 3.0932710339 3.0932710339 3.0932710339 3.0932710339 3.0932710339 3.0932710339 3.0932710339 3.0932710339 
3.0932710339 3.0932710339 3.0932710339 3.0932710339 3.0932710339 3.0932710339 3.0932710339 3.0932710339 3.0932710339 
3.0932710339 3.0932710339 3.0932710339 3.0932710339 3.0932710339 3.0932710339 3.0932710339 3.0932710339 3.0932710339 
3.0932710339 3.0932710339 3.0932710339 3.0932710339 3.0932710339 3.0932710339 3.0932710339 3.0932710339 3.0932710339 
3.0932710339 3.0932710339 3.0932710339 3.0932710339 3.0932710339 3.0932710339 3.0932710339 3.0932710339 3.0932710339 
3.0932710339 3.0932710339 3.0932710339 3.0932710339 3.0932710339 3.0932710339 3.0932710339 3.0932710339 3.0932710339 
3.0932710339 3.0932710339 3.0932710339 3.0932710339 3.0932710339 3.0932710339 3.0932710339 3.0932710339 3.0932710339 
3.0932710339 3.0932710339 3.0932710339 3.0932710339 3.0932710339 3.0932710339 3.0932710339 3.0932710339 3.0932710339 
3.0932710339 3.0932710339 3.0932710339 3.0932710339 3.0932710339 3.0932710339 3.0932710339 3.0932710339 3.0932710339 
3.0932710339 3.0932710339 3.0932710339 3.0932710339 3.0932710339 3.0932710339 3.0932710339 3.0932710339 3.0932710339 
3.0932710339 3.0932710339 3.0932710339 3.0932710339 3.0932710339 3.0932710339 3.0932710339 3.0932710339 3.0932710339 
3.0932710339 3.0932710339 3.0932710339 3.0932710339 3.0932710339 3.0932710339 3.0932710339 3.0932710339 3.0932710339 
3.0932710339 3.0932710339 3.0932710339 3.0932710339 3.0932710339 3.0932710339 3.0932710339 3.0932710339 3.0932710339 
3.0932710339 3.0932710339 3.0932710339 3.0932710339 3.0932710339 3.0932710339 3.0932710339 3.0932710339 3.0932710339 
3.0932710339 3.0932710339 3.0932710339 3.0932710339 3.0932710339 3.0932710339 3.0932710339 3.0932710339 3.0932710339 
3.0932710339 3.0932710339 3.0932710339 3.0932710339 3.0932710339 3.0932710339 3.0932710339 3.0932710339 3.0932710339 
3.0932710339 3.0932710339 3.0932710339 3.0932710339 3.0932710339 3.0932710339 3.0932710339 3.0932710339 3.0932710339 
3.0932710339 3.0932710339 3.0932710339 3.0932710339 3.0932710339 3.0932710339 3.0932710339 3.0932710339 3.0932710339 
3.0932710339 3.0932710339 3.0932710339 3.0932710339 3.0932710339 3.0932710339 3.0932710339 3.0932710339 3.1078652246 
3.1078652246 3.1078652246 3.1078652246 3.0932710339 3.0932710339 3.1078652246 3.1078652246 3.1078652246 3.1078652246 
3.0932710339 3.0932710339 3.1078652246 3.1078652246 3.1078652246 3.1078652246 3.0932710339 3.0932710339 3.1078652246 
3.1078652246 3.1078652246 3.1078652246 3.1078652246 3.0932710339 3.0932710339 3.1078652246 3.1078652246 3.1078652246 
3.1078652246 3.1078652246 3.0932710339 3.0932710339 3.1078652246 3.1078652246 3.0932710339 3.0932710339 3.1078652246 
3.1078652246 3.1078652246 3.0932710339 3.0932710339 3.1078652246 3.1078652246 3.1078652246 3.0932710339 3.0932710339 
3.0932710339 3.0932710339 3.1078652246 3.1078652246 3.0932710339 3.0932710339 3.1078652246 3.1078652246 3.0932710339 
3.0932710339 3.1078652246 3.1078652246 3.0932710339 3.0932710339 3.1078652246 3.1078652246 3.1078652246 3.0932710339 
3.0932710339 3.1078652246 3.1078652246 3.1078652246 3.0932710339 3.0932710339 3.1078652246 3.1078652246 3.0932710339 
3.0932710339 3.1078652246 3.1078652246 3.0932710339 3.0932710339 3.1078652246 3.1078652246 3.0932710339 3.0932710339 
3.1078652246 3.1078652246 3.1078652246 3.1078652246 3.0932710339 3.0932710339 3.1078652246 3.1078652246 3.0932710339 
3.0932710339 3.1078652246 3.1078652246 3.0932710339 3.0932710339 3.1078652246 3.1078652246 3.1078652246 3.0932710339 
3.0932710339 3.1078652246 3.1078652246 3.1078652246 3.0932710339 3.0932710339 3.1078652246 3.1078652246 3.0932710339 
3.0932710339 3.1078652246 3.1078652246 3.0932710339 3.0932710339 3.1078652246 3.1078652246 3.1078652246 3.0932710339 
3.0932710339 3.0932710339 3.1078652246 3.1078652246 3.0932710339 3.0932710339 3.1078652246 3.1224594153 3.1224594153 
3.1224594153 3.1224594153 3.1078652246 3.0932710339 3.0932710339 3.1078652246 3.1224594153 3.1224594153 3.1224594153 
3.1078652246 3.1078652246 3.0932710339 3.0932710339 3.1078652246 3.1224594153 3.1224594153 3.1224594153 3.1224594153 
3.1078652246 3.0932710339 3.0932710339 3.1078652246 3.1224594153 3.1224594153 3.1224594153 3.1078652246 3.0932710339 
3.0932710339 3.1078652246 3.1224594153 3.1224594153 3.1224594153 3.1078652246 3.1078652246 3.0932710339 3.0932710339 
3.1078652246 3.1224594153 3.1224594153 3.1224594153 3.1224594153 3.1078652246 3.0932710339 3.0932710339 3.1078652246 
3.1078652246 3.1224594153 3.1224594153 3.1078652246 3.1078652246 3.0932710339 3.0932710339 3.1078652246 3.1224594153 
3.1224594153 3.1224594153 3.1078652246 3.0932710339 3.0932710339 3.1078652246 3.1224594153 3.1224594153 3.1078652246 
3.1078652246 3.0932710339 3.0932710339 3.0932710339 3.1078652246 3.1224594153 3.1224594153 3.1224594153 3.1078652246 
3.0932710339 3.0932710339 3.1078652246 3.1224594153 3.1224594153 3.1078652246 3.0932710339 3.0932710339 3.1078652246 
3.1224594153 3.1224594153 3.1224594153 3.1078652246 3.1078652246 3.0932710339 3.0932710339 3.1078652246 3.1224594153 
3.1224594153 3.1078652246 3.0932710339 3.0932710339 3.1078652246 3.1224594153 3.1224594153 3.1224594153 3.1078652246 
3.0932710339 3.0932710339 3.1078652246 3.1078652246 3.1224594153 3.137053606 3.137053606 3.137053606 3.1224594153 
3.1078652246 3.1078652246 3.0932710339 3.0932710339 3.1078652246 3.1224594153 3.1224594153 3.137053606 3.137053606 
3.137053606 3.137053606 3.1224594153 3.1078652246 3.0932710339 3.0932710339 3.1078652246 3.1224594153 3.137053606 
3.137053606 3.137053606 3.137053606 3.1224594153 3.1078652246 3.0932710339 3.0786768432 3.0786768432 3.0786768432 
3.0786768432 3.0786768432 3.0786768432 3.0786768432 3.0786768432 3.0786768432 3.0932710339 3.1078652246 3.1224594153 
3.137053606 3.137053606 3.1224594153 3.1078652246 3.0932710339 3.0786768432 3.0786768432 3.0786768432 3.0786768432 
3.0932710339 3.1078652246 3.1224594153 3.137053606 3.137053606 3.137053606 3.1224594153 3.1078652246 3.1078652246 
3.0932710339 3.0786768432 3.0786768432 3.0786768432 3.0786768432 3.0932710339 3.1078652246 3.1224594153 3.137053606 
3.137053606 3.137053606 3.1224594153 3.1078652246 3.0932710339 3.0786768432 3.0786768432 3.0786768432 3.0932710339 
3.0932710339 3.1078652246 3.1224594153 3.1224594153 3.137053606 3.137053606 3.137053606 3.1224594153 3.1078652246 
3.0932710339 3.0786768432 3.0786768432 3.0786768432 3.0932710339 3.1078652246 3.1224594153 3.137053606 3.137053606 
3.137053606 3.1224594153 3.1078652246 3.1078652246 3.0932710339 3.0786768432 3.0786768432 3.0786768432 3.0932710339 
3.1078652246 3.1224594153 3.137053606 3.137053606 3.1224594153 3.1078652246 3.0932710339 3.0786768432 3.0786768432 
3.0786768432 3.0932710339 3.1078652246 3.1224594153 3.137053606 3.137053606 3.137053606 3.1224594153 3.1078652246 
3.0932710339 3.0786768432 3.0786768432 3.0786768432 3.0786768432 3.0932710339 3.1078652246 3.1224594153 3.137053606 
3.137053606 3.1224594153 3.1078652246 3.0932710339 3.0932710339 3.0786768432 3.0786768432 3.0786768432 3.0932710339 
3.1078652246 3.1224594153 3.137053606 3.1516477967 3.1516477967 3.1516477967 3.1516477967 3.1516477967 3.137053606 
3.1224594153 3.1078652246 3.0932710339 3.0786768432 3.0786768432 3.0786768432 3.0932710339 3.1078652246 3.1224594153 
3.1224594153 3.137053606 3.137053606 3.1516477967 3.1516477967 3.1516477967 3.1516477967 3.137053606 3.1224594153 
3.1078652246 3.1078652246 3.0932710339 3.0786768432 3.0786768432 3.0786768432 3.0932710339 3.1078652246 3.1224594153 
3.137053606 3.1516477967 3.1516477967 3.137053606 3.1224594153 3.1078652246 3.0932710339 3.0786768432 3.0786768432 
3.0786768432 3.0932710339 3.1078652246 3.1224594153 3.137053606 3.1516477967 3.1516477967 3.1516477967 3.1516477967 
3.137053606 3.137053606 3.1224594153 3.1078652246 3.0932710339 3.0786768432 3.0786768432 3.0786768432 3.0786768432 
3.0786768432 3.0786768432 3.0932710339 3.1078652246 3.1224594153 3.137053606 3.1516477967 3.1516477967 3.137053606 
3.1224594153 3.1224594153 3.1078652246 3.0932710339 3.0786768432 3.0786768432 3.0786768432 3.0786768432 3.0786768432 
3.0786768432 3.0786768432 3.0786768432 3.0932710339 3.1078652246 3.1224594153 3.137053606 3.137053606 3.1516477967 
3.1516477967 3.1516477967 3.137053606 3.1224594153 3.1078652246 3.0932710339 3.0932710339 3.0786768432 3.0786768432 
3.0786768432 3.0786768432 3.0786768432 3.0932710339 3.1078652246 3.1078652246 3.1224594153 3.137053606 3.1516477967 
3.1516477967 3.137053606 3.1224594153 3.1078652246 3.0932710339 3.0786768432 3.0786768432 3.0786768432 3.0786768432 
3.0932710339 3.1078652246 3.1224594153 3.137053606 3.1516477967 3.1516477967 3.137053606 3.1224594153 3.1078652246 
3.1078652246 3.0932710339 3.0786768432 3.0786768432 3.0786768432 3.0786768432 3.0932710339 3.1078652246 3.1224594153 
3.1224594153 3.137053606 3.1516477967 3.1516477967 3.1662419875 3.1662419875 3.1662419875 3.1662419875 3.1516477967 
3.137053606 3.1224594153 3.1078652246 3.0932710339 3.0786768432 3.0786768432 3.0786768432 3.0786768432 3.0786768432 
3.0786768432 3.0932710339 3.1078652246 3.1224594153 3.137053606 3.137053606 3.1516477967 3.1662419875 3.1662419875 
3.1662419875 3.1662419875 3.1516477967 3.1516477967 3.137053606 3.1224594153 3.1224594153 3.1224594153 3.1224594153 
3.1224594153 3.1078652246 3.0932710339 3.0786768432 3.0786768432 3.0786768432 3.0786768432 3.0932710339 3.0932710339 
3.1078652246 3.1224594153 3.137053606 3.1516477967 3.1516477967 3.1662419875 3.1662419875 3.1662419875 3.1516477967 
3.137053606 3.1224594153 3.1224594153 3.1224594153 3.1224594153 3.1224594153 3.1078652246 3.0932710339 3.0786768432 
3.0786768432 3.0786768432 3.0786768432 3.0786768432 3.0786768432 3.0932710339 3.1078652246 3.1224594153 3.137053606 
3.1516477967 3.1662419875 3.1662419875 3.1516477967 3.137053606 3.1224594153 3.1224594153 3.1224594153 3.1078652246 
3.0932710339 3.0786768432 3.0786768432 3.0786768432 3.0640826525 3.0640826525 3.0640826525 3.0640826525 3.0640826525 
3.0640826525 3.0640826525 3.0640826525 3.0786768432 3.0932710339 3.1078652246 3.1224594153 3.137053606 3.137053606 
3.1516477967 3.1662419875 3.1662419875 3.1662419875 3.1662419875 3.1516477967 3.137053606 3.1224594153 3.1224594153 
3.1224594153 3.1224594153 3.1078652246 3.0932710339 3.0786768432 3.0786768432 3.0786768432 3.0786768432 3.0640826525 
3.0640826525 3.0640826525 3.0786768432 3.0932710339 3.1078652246 3.1224594153 3.137053606 3.1516477967 3.1662419875 
3.1662419875 3.1662419875 3.1516477967 3.137053606 3.1224594153 3.1224594153 3.1224594153 3.1078652246 3.0932710339 
3.0786768432 3.0786768432 3.0786768432 3.0786768432 3.0640826525 3.0640826525 3.0640826525 3.0640826525 3.0786768432 
3.0932710339 3.1078652246 3.1224594153 3.1224594153 3.137053606 3.1516477967 3.1516477967 3.1662419875 3.1662419875 
3.1516477967 3.137053606 3.1224594153 3.1224594153 3.1224594153 3.1078652246 3.0932710339 3.0786768432 3.0786768432 
3.0786768432 3.0640826525 3.0640826525 3.0786768432 3.0932710339 3.1078652246 3.1224594153 3.137053606 3.1516477967 
3.1662419875 3.1662419875 3.1516477967 3.137053606 3.1224594153 3.1224594153 3.1224594153 3.1224594153 3.1078652246 
3.0932710339 3.0786768432 3.0786768432 3.0786768432 3.0640826525 3.0640826525 3.0640826525 3.0786768432 3.0932710339 
3.1078652246 3.1224594153 3.137053606 3.1516477967 3.1516477967 3.1662419875 3.1662419875 3.1662419875 3.1516477967 
3.137053606 3.1224594153 3.1224594153 3.1224594153 3.1078652246 3.0932710339 3.0786768432 3.0786768432 3.0786768432 
3.0640826525 3.0640826525 3.0786768432 3.0932710339 3.1078652246 3.1224594153 3.137053606 3.137053606 3.1516477967 
3.1662419875 3.1808361782 3.1808361782 3.1808361782 3.1662419875 3.1516477967 3.137053606 3.1224594153 3.1224594153 
3.1224594153 3.1078652246 3.1078652246 3.0932710339 3.0786768432 3.0786768432 3.0786768432 3.0786768432 3.0786768432 
3.0786768432 3.0786768432 3.0786768432 3.0786768432 3.0786768432 3.0786768432 3.0640826525 3.0640826525 3.0786768432 
3.0786768432 3.0932710339 3.1078652246 3.1224594153 3.137053606 3.1516477967 3.1662419875 3.1662419875 3.1808361782 
3.1808361782 3.1808361782 3.1808361782 3.1662419875 3.1516477967 3.137053606 3.1224594153 3.1224594153 3.1224594153 
3.1078652246 3.0932710339 3.0932710339 3.0786768432 3.0786768432 3.0786768432 3.0786768432 3.0786768432 3.0786768432 
3.0786768432 3.0786768432 3.0786768432 3.0786768432 3.0786768432 3.0786768432 3.0640826525 3.0640826525 3.0494884618 
3.0494884618 3.0494884618 3.0494884618 3.0494884618 3.0494884618 3.0640826525 3.0640826525 3.0786768432 3.0932710339 
3.1078652246 3.1224594153 3.137053606 3.1516477967 3.1516477967 3.1662419875 3.1808361782 3.1808361782 3.1808361782 
3.1808361782 3.1662419875 3.1516477967 3.137053606 3.1224594153 3.1224594153 3.1224594153 3.1078652246 3.0932710339 
3.0786768432 3.0786768432 3.0786768432 3.0786768432 3.0786768432 3.0786768432 3.0786768432 3.0786768432 3.0786768432 
3.0786768432 3.0786768432 3.0786768432 3.0786768432 3.0786768432 3.0786768432 3.0786768432 3.0786768432 3.0786768432 
3.0640826525 3.0494884618 3.0494884618 3.0494884618 3.0640826525 3.0786768432 3.0932710339 3.1078652246 3.1078652246 
3.1224594153 3.1224594153 3.137053606 3.137053606 3.1516477967 3.1662419875 3.1662419875 3.1808361782 3.1808361782 
3.1662419875 3.1516477967 3.137053606 3.1224594153 3.1224594153 3.1224594153 3.1224594153 3.1078652246 3.0932710339 
3.0786768432 3.0786768432 3.0786768432 3.0786768432 3.0786768432 3.0786768432 3.0786768432 3.0786768432 3.0786768432 
3.0786768432 3.0786768432 3.0786768432 3.0786768432 3.0786768432 3.0786768432 3.0786768432 3.0786768432 3.0786768432 
3.0640826525 3.0494884618 3.0494884618 3.0494884618 3.0640826525 3.0786768432 3.0932710339 3.0932710339 3.1078652246 
3.1224594153 3.137053606 3.1516477967 3.1662419875 3.1808361782 3.1808361782 3.1808361782 3.1662419875 3.1516477967 
3.137053606 3.1224594153 3.1224594153 3.1224594153 3.1224594153 3.1078652246 3.0932710339 3.0786768432 3.0786768432 
3.0786768432 3.0786768432 3.0786768432 3.0786768432 3.0786768432 3.0786768432 3.0786768432 3.0786768432 3.0786768432 
3.0786768432 3.0640826525 3.0494884618 3.0494884618 3.0640826525 3.0786768432 3.0932710339 3.1078652246 3.1224594153 
3.137053606 3.1516477967 3.1516477967 3.1662419875 3.1662419875 3.1808361782 3.1808361782 3.1808361782 3.1662419875 
3.1516477967 3.137053606 3.1224594153 3.1224594153 3.1224594153 3.1078652246 3.0932710339 3.0786768432 3.0640826525 
3.0640826525 3.0640826525 3.0640826525 3.0786768432 3.0786768432 3.0786768432 3.0786768432 3.0786768432 3.0786768432 
3.0786768432 3.0786768432 3.0640826525 3.0494884618 3.0348942711 3.0348942711 3.0348942711 3.0348942711 3.0348942711 
3.0494884618 3.0494884618 3.0640826525 3.0786768432 3.0932710339 3.1078652246 3.1224594153 3.137053606 3.1516477967 
2.9473291268 2.9473291268 2.9619233175 2.9619233175 2.9765175082 2.9765175082 2.991111699 2.991111699 3.0057058897 
3.0057058897 3.0203000804 3.0203000804 3.0348942711 3.0348942711 3.0494884618 3.0494884618 3.0640826525 3.0640826525 
3.0786768432 3.0786768432 3.0932710339 3.0932710339 3.1078652246 3.1078652246 3.1224594153 3.1224594153 3.137053606 
3.137053606 3.1516477967 3.1516477967 3.1662419875 2.9473291268 2.9619233175 2.9765175082 2.991111699 3.0057058897 
3.0203000804 3.0348942711 3.0494884618 3.0640826525 3.0786768432 3.0932710339 3.1078652246 3.1224594153 3.137053606 
3.1516477967 3.1662419875 2.9473291268 2.9619233175 2.9765175082 2.991111699 3.0057058897 3.0203000804 3.0348942711 
3.0494884618 3.0640826525 3.0786768432 3.0932710339 3.1078652246 3.1224594153 3.137053606 3.1516477967 3.1662419875 
2.9473291268 2.9619233175 2.9765175082 2.991111699 3.0057058897 3.0203000804 3.0348942711 3.0494884618 3.0640826525 
3.0786768432 3.0932710339 3.1078652246 3.1224594153 3.137053606 3.1516477967 3.1662419875 2.9473291268 2.9619233175 
2.9765175082 2.991111699 3.0057058897 3.0203000804 3.0348942711 3.0494884618 3.0640826525 3.0786768432 3.0932710339 
3.1078652246 3.1224594153 3.137053606 3.1516477967 3.1662419875 3.1808361782 2.9473291268 2.9619233175 2.9765175082 
2.991111699 3.0057058897 3.0203000804 3.0348942711 3.0494884618 3.0640826525 3.0786768432 3.0932710339 3.1078652246 
3.1224594153 3.137053606 3.1516477967 3.1662419875 3.1808361782 2.9473291268 2.9619233175 2.9765175082 2.991111699 
3.0057058897 3.0203000804 3.0348942711 3.0494884618 3.0640826525 3.0786768432 3.0932710339 3.1078652246 3.1224594153 
3.137053606 3.1516477967 3.1662419875 3.1808361782 2.9473291268 2.9619233175 2.9765175082 2.991111699 3.0057058897 
3.0203000804 3.0348942711 3.0494884618 3.0640826525 3.0786768432 3.0932710339 3.1078652246 3.1224594153 3.137053606 
3.1516477967 3.1662419875 3.1808361782 2.9473291268 2.9619233175 2.9765175082 2.991111699 3.0057058897 3.0203000804 
3.0348942711 3.0494884618 3.0640826525 3.0786768432 3.0932710339 3.1078652246 3.1224594153 3.137053606 3.1516477967 
3.1662419875 3.1808361782 2.9473291268 2.9619233175 2.9765175082 2.991111699 3.0057058897 3.0203000804 3.0348942711 