# vtk DataFile Version 4.2
vtk output
ASCII
DATASET UNSTRUCTURED_GRID
POINTS 1740 double
2144.07 -94.44003 0 2911 0 0 16.54298 -37.82236 0 
5.09149 -21.30132 0 1.27433 -10.75385 0 0 0 0 
2.54575 15.14293 0 6.36291 23.76126 0 14.00014 34.89063 0 
30.50239 50.70793 0 33.39435 -52.93479 0 2050.91 -103.7862 0 
60.1465 -69.72165 0 88.83633 -83.2817 0 118.7656 -94.71113 0 
153.4168 -105.7022 0 199.5806 -117.771 0 261.4466 -130.7139 0 
345.846 -144.1892 0 460.3522 -157.0592 0 608.4185 -167.1903 0 
783.2313 -172.4016 0 941.0559 -172.4533 0 1063.409 -170.1096 0 
1164.153 -166.8746 0 1263.449 -162.682 0 1375.468 -156.8941 0 
1513.293 -148.414 0 1665.281 -137.5317 0 1791.864 -127.3721 0 
2195.451 -89.09491 0 2273.924 -80.67077 0 2383.731 -68.3513 0 
2517.64 -52.47337 0 2649.227 -35.9232 0 2740.773 -23.82991 0 
2804.387 -15.13419 0 2848.802 -8.916218 0 2881.944 -4.196067 0 
56.61447 67.79801 0 84.09687 81.25172 0 112.4783 92.48395 0 
142.1748 102.3504 0 174.8563 111.6168 0 213.124 120.8806 0 
260.3759 130.5151 0 324.6539 141.1779 0 418.1422 152.9178 0 
535.6656 162.9871 0 690.9154 170.4255 0 902.6513 172.7852 0 
1100.32 169.0517 0 1270.99 162.3262 0 1462.794 151.6837 0 
1631.287 140.0952 0 1747.993 131 0 1922.788 115.9027 0 
2069.56 101.951 0 2128.804 96.0021 0 2297.147 78.11721 0 
2414.379 64.80104 0 2554.023 47.99319 0 2673.693 32.73885 0 
2757.97 21.50315 0 2814.297 13.7575 0 2852.02 8.460961 0 
2882.272 4.148909 0 1791.052 127.4402 0 1366.894 157.3738 0 
1444.38 -152.8302 0 1547.039 146.1296 0 1589.287 -143.1614 0 
1878.731 119.8675 0 1997.072 108.9828 0 1185.654 166.0472 0 
1882.536 -119.5292 0 1971.323 -111.4145 0 1684.777 136.0292 0 
2099.317 -98.9855 0 2234.809 84.9091 0 2181.695 90.53914 0 
1728.573 -132.5703 0 1718.815 133.3509 0 1834.825 123.7132 0 
1960.305 112.4444 0 2033.69 105.4648 0 2099.184 98.99892 0 
2214.291 -91.28108 396.8421 2955.512 0 396.8421 158.0786 -36.55725 396.8421 
147.0109 -20.58881 396.8421 143.3217 -10.39414 396.8421 142.09 0 396.8421 
144.5505 14.63642 396.8421 148.2398 22.96647 396.8421 155.621 33.7236 396.8421 
171.5701 49.0118 396.8421 174.3652 -51.16418 396.8421 2124.254 -100.3146 396.8421 
200.2206 -67.38955 396.8421 227.9488 -80.496 396.8421 256.8748 -91.54313 396.8421 
290.3647 -102.1666 396.8421 334.981 -113.8317 396.8421 394.7733 -126.3417 396.8421 
476.3434 -139.3662 396.8421 587.0114 -151.8057 396.8421 730.1145 -161.598 396.8421 
899.0676 -166.635 396.8421 1051.602 -166.6849 396.8421 1169.853 -164.4196 396.8421 
1267.221 -161.2928 396.8421 1363.188 -157.2405 396.8421 1471.452 -151.6461 396.8421 
1604.657 -143.4497 396.8421 1751.55 -132.9314 396.8421 1873.891 -123.1116 396.8421 
2263.949 -86.11477 396.8421 2339.792 -77.97241 396.8421 2445.918 -66.06502 396.8421 
2575.338 -50.71819 396.8421 2702.515 -34.72161 396.8421 2790.992 -23.03283 396.8421 
2852.473 -14.62796 396.8421 2895.4 -8.617981 396.8421 2927.431 -4.055712 396.8421 
196.807 65.53025 396.8421 223.3682 78.53392 396.8421 250.7983 89.39046 396.8421 
279.4994 98.92684 396.8421 311.0855 107.8833 396.8421 348.0705 116.8372 396.8421 
393.7383 126.1495 396.8421 455.8617 136.4557 396.8421 546.2162 147.8029 396.8421 
659.8003 157.5353 396.8421 809.846 164.725 396.8421 1014.485 167.0057 396.8421 
1205.528 163.397 396.8421 1370.477 156.8965 396.8421 1555.851 146.6101 396.8421 
1718.696 135.4091 396.8421 1831.49 126.6182 396.8421 2000.426 112.0259 396.8421 
2142.278 98.54079 396.8421 2199.537 92.79091 396.8421 2362.236 75.50428 396.8421 
2475.539 62.63352 396.8421 2610.501 46.38786 396.8421 2726.16 31.64375 396.8421 
2807.613 20.78389 396.8421 2862.05 13.29733 396.8421 2898.509 8.177951 396.8421 
2927.749 4.010132 396.8421 1873.106 123.1775 396.8421 1463.165 152.1098 396.8421 
1538.054 -147.7182 396.8421 1637.272 141.2417 396.8421 1678.104 -138.3728 396.8421 
1957.846 115.8581 396.8421 2072.22 105.3375 396.8421 1288 160.493 396.8421 
1961.524 -115.5311 396.8421 2047.334 -107.6878 396.8421 1770.393 131.4792 396.8421 
2171.038 -95.67455 396.8421 2301.989 82.06898 396.8421 2250.655 87.5107 396.8421 
1812.721 -128.1359 396.8421 1803.29 128.8904 396.8421 1915.411 119.5751 396.8421 
2036.686 108.6832 396.8421 2107.61 101.9371 396.8421 2170.909 95.6875 396.8421 
2284.511 -88.12216 793.6842 3000.027 0 793.6842 299.6143 -35.29215 793.6842 
288.9304 -19.8763 793.6842 285.3691 -10.03443 793.6842 284.1801 0 793.6842 
286.5551 14.1299 793.6842 290.1167 22.17168 793.6842 297.2417 32.55653 793.6842 
312.6379 47.31566 793.6842 315.336 -49.39355 793.6842 2197.597 -96.84307 793.6842 
340.2947 -65.05744 793.6842 367.0612 -77.71032 793.6842 394.9839 -88.37515 793.6842 
427.3123 -98.63097 793.6842 470.3812 -109.8924 793.6842 528.0998 -121.9695 793.6842 
606.8411 -134.5432 793.6842 713.6708 -146.5523 793.6842 851.8104 -156.0057 793.6842 
1014.904 -160.8683 793.6842 1162.147 -160.9165 793.6842 1276.298 -158.7296 793.6842 
1370.288 -155.711 793.6842 1462.927 -151.7989 793.6842 1567.436 -146.3982 793.6842 
1696.021 -138.4854 793.6842 1837.82 -128.3311 793.6842 1955.917 -118.8511 793.6842 
2332.447 -83.13465 793.6842 2405.659 -75.27404 793.6842 2508.105 -63.77873 793.6842 
2633.037 -48.96301 793.6842 2755.801 -33.52 793.6842 2841.209 -22.23574 793.6842 
2900.561 -14.12174 793.6842 2941.997 -8.319741 793.6842 2972.917 -3.915359 793.6842 
336.9995 63.26245 793.6842 362.6396 75.81612 793.6842 389.1182 86.29695 793.6842 
416.8239 95.50334 793.6842 447.3145 104.1499 793.6842 483.0167 112.7939 793.6842 
527.1009 121.7839 793.6842 587.0697 131.7334 793.6842 674.2905 142.6879 793.6842 
783.9349 152.0835 793.6842 928.7766 159.0244 793.6842 1126.317 161.2262 793.6842 
1310.735 157.7424 793.6842 1469.963 151.4669 793.6842 1648.908 141.5364 793.6842 
1806.105 130.7231 793.6842 1914.987 122.2364 793.6842 2078.064 108.1491 793.6842 
2214.996 95.13065 793.6842 2270.269 89.57976 793.6842 2427.326 72.89135 793.6842 
2536.699 60.46597 793.6842 2666.98 44.78253 793.6842 2778.628 30.54868 793.6842 
2857.255 20.06463 793.6842 2909.806 12.83715 793.6842 2945.001 7.894939 793.6842 
2973.224 3.871357 793.6842 1955.16 118.9147 793.6842 1559.437 146.8458 793.6842 
1631.729 -142.6062 793.6842 1727.505 136.3538 793.6842 1766.921 -133.5842 793.6842 
2036.96 111.8486 793.6842 2147.368 101.6921 793.6842 1390.347 154.9389 793.6842 
2040.511 -111.5329 793.6842 2123.346 -103.9611 793.6842 1856.009 126.9292 793.6842 
2242.759 -92.36358 793.6842 2369.167 79.22886 793.6842 2319.614 84.48225 793.6842 
1896.869 -123.7016 793.6842 1887.765 124.43 793.6842 1995.998 115.437 793.6842 
2113.066 104.9221 793.6842 2181.531 98.40941 793.6842 2242.634 92.3761 793.6842 
2354.732 -84.96324 1190.526 3044.539 0 1190.526 441.15 -34.02702 1190.526 
430.8497 -19.16379 1190.526 427.4164 -9.674731 1190.526 426.2701 0 1190.526 
428.5601 13.62338 1190.526 431.9934 21.37689 1190.526 438.8627 31.38948 1190.526 
453.7057 45.61954 1190.526 456.3069 -47.62293 1190.526 2270.94 -93.37152 1190.526 
480.3688 -62.72532 1190.526 506.1737 -74.92462 1190.526 533.0934 -85.20716 1190.526 
564.26 -95.09534 1190.526 605.7815 -105.9531 1190.526 661.4265 -117.5972 1190.526 
737.3385 -129.7202 1190.526 840.33 -141.2988 1190.526 973.5064 -150.4133 1190.526 
1130.74 -155.1017 1190.526 1272.693 -155.1481 1190.526 1382.742 -153.0396 1190.526 
1473.356 -150.1293 1190.526 1562.666 -146.3574 1190.526 1663.42 -141.1502 1190.526 
1787.385 -133.5211 1190.526 1924.09 -123.7308 1190.526 2037.944 -114.5907 1190.526 
2400.946 -80.1545 1190.526 2471.527 -72.57569 1190.526 2570.292 -61.49245 1190.526 
2690.735 -47.20783 1190.526 2809.091 -32.31842 1190.526 2891.43 -21.43865 1190.526 
2948.647 -13.61552 1190.526 2988.597 -8.021504 1190.526 3018.403 -3.775004 1190.526 
477.1918 60.99469 1190.526 501.9109 73.09835 1190.526 527.4382 83.20348 1190.526 
554.1485 92.07983 1190.526 583.5435 100.4164 1190.526 617.963 108.7506 1190.526 
660.4633 117.4183 1190.526 718.2775 127.0111 1190.526 802.3645 137.573 1190.526 
908.0698 146.6318 1190.526 1047.707 153.3238 1190.526 1238.151 155.4467 1190.526 
1415.942 152.0878 1190.526 1569.449 146.0372 1190.526 1741.965 136.4627 1190.526 
1893.514 126.0371 1190.526 1998.484 117.8546 1190.526 2155.702 104.2723 1190.526 
2287.714 91.72047 1190.526 2341.001 86.36857 1190.526 2492.415 70.27839 1190.526 
2597.858 58.29845 1190.526 2723.46 43.17722 1190.526 2831.095 29.45361 1190.526 
2906.899 19.34537 1190.526 2957.56 12.37698 1190.526 2991.49 7.611928 1190.526 
3018.699 3.73258 1190.526 2037.214 114.652 1190.526 1655.708 141.5818 1190.526 
1725.403 -137.4941 1190.526 1817.738 131.4659 1190.526 1855.738 -128.7956 1190.526 
2116.075 107.8392 1190.526 2222.516 98.0467 1190.526 1492.694 149.3848 1190.526 
2119.498 -107.5348 1190.526 2199.357 -100.2344 1190.526 1941.625 122.3791 1190.526 
2314.479 -89.05261 1190.526 2436.346 76.38873 1190.526 2388.573 81.45382 1190.526 
1981.017 -119.2672 1190.526 1972.24 119.9695 1190.526 2076.584 111.2989 1190.526 
2189.446 101.1609 1190.526 2255.451 94.88171 1190.526 2314.359 89.06468 1190.526 
2424.953 -81.80434 1587.368 3089.052 0 1587.368 582.6856 -32.76188 1587.368 
572.7692 -18.45128 1587.368 569.4638 -9.315025 1587.368 568.3603 0 1587.368 
570.5649 13.11687 1587.368 573.8703 20.5821 1587.368 580.4835 30.22241 1587.368 
594.7733 43.92341 1587.368 597.2777 -45.85232 1587.368 2344.284 -89.89999 1587.368 
620.4428 -60.39318 1587.368 645.286 -72.13895 1587.368 671.2025 -82.03916 1587.368 
701.2078 -91.55972 1587.368 741.1819 -102.0137 1587.368 794.7529 -113.225 1587.368 
867.8361 -124.8972 1587.368 966.9893 -136.0453 1587.368 1095.202 -144.8209 1587.368 
1246.576 -149.335 1587.368 1383.239 -149.3797 1587.368 1489.187 -147.3496 1587.368 
1576.423 -144.5475 1587.368 1662.405 -140.9158 1587.368 1759.404 -135.9023 1587.368 
1878.75 -128.5568 1587.368 2010.359 -119.1305 1587.368 2119.97 -110.3302 1587.368 
2469.444 -77.17438 1587.368 2537.396 -69.87733 1587.368 2632.479 -59.20618 1587.368 
2748.434 -45.45263 1587.368 2862.377 -31.11683 1587.368 2941.647 -20.64157 1587.368 
[...]
POINT_DATA 1740
FIELD FieldData 1
Pressure 1 1740 double
3.1127095745 3.0266291749 3.0097252231 2.9866070625 2.9798402027 2.9618485037 2.9728224214 2.9894170001 3.0200644052 
3.0343282494 3.0102767851 3.1159353239 3.0334482817 3.0477764349 3.0654519137 3.0633625042 3.0814309597 3.086487088 
3.1069062713 3.114112044 3.1324598661 3.1419829304 3.1473191881 3.1546306592 3.1541116103 3.1513964171 3.1501844693 
3.1428947819 3.1310995195 3.1232596952 3.1111539932 3.1070855956 3.1018681399 3.094337252 3.0840969572 3.0741136015 
3.0644167389 3.0555808713 3.047369812 3.0705155005 3.0817915133 3.0955188055 3.1089265798 3.1146767049 3.1220473782 
3.1289545901 3.1366262754 3.1516075546 3.1628104758 3.1806135596 3.1914169815 3.1960484292 3.2026007121 3.2102264461 
3.2095344001 3.2128454331 3.1649575183 3.1588870387 3.1153099482 3.0923157327 3.0829640534 3.0730708559 3.0635091923 
3.053501153 3.0430951314 3.0352747725 3.0349485388 3.2001773746 3.2065864469 3.147705882 3.2108453004 3.1379304955 
3.17709393 3.1589069511 3.2012712153 3.1200620688 3.1175944429 3.2070866583 3.1138180476 3.0955696596 3.1015026619 
3.1261539498 3.2084815477 3.1856248712 3.161240741 3.1578173671 3.1474565182 3.1113442277 3.0240480836 3.0292554696 
3.0017962658 3.0084000393 2.9877793298 2.9953023011 3.0065911729 3.0354994546 3.0545273874 3.0336833525 3.1136415801 
3.0550093405 3.0673507562 3.0815687578 3.0868800406 3.1008176078 3.1121322597 3.1239811121 3.1317234583 3.1405170208 
3.148111264 3.1533367528 3.1581426036 3.1577205723 3.1541413269 3.1494602328 3.1379736406 3.1254304236 3.1188958089 
3.1087067814 3.1045825828 3.0992037356 3.0910820984 3.0808823942 3.070674298 3.0608762721 3.0528021924 3.0394387585 
3.0878137883 3.1089511782 3.1216186904 3.1301831875 3.1393430901 3.1443703745 3.1490993533 3.1598485758 3.1708913196 
3.1784062978 3.1884303934 3.1959035699 3.2000287415 3.2073665737 3.2126678881 3.2066275944 3.2047572374 3.1565695425 
3.1489192561 3.0887808751 3.0818744892 3.0757452102 3.0672828892 3.0567790025 3.0463059986 3.0370111624 3.0309427212 
3.0309313723 3.1834207208 3.2098668959 3.1464842747 3.209313024 3.1322467392 3.1655375209 3.154371068 3.2038143984 
3.1161704253 3.1151276754 3.2043328944 3.1118951568 3.0878343402 3.0866820392 3.12158862 3.2047390925 3.1715635527 
3.1555055836 3.1552208509 3.119343379 3.1102420299 3.0207858697 3.0297970322 3.0015193479 3.0047460911 2.9867489717 
2.9985209745 3.0116860679 3.0413813679 3.0628475364 3.0423115069 3.1133982737 3.0578071515 3.0769500636 3.095195118 
3.1036398022 3.1148819323 3.1236870704 3.1375868099 3.1453950461 3.1529157382 3.1577453309 3.1606936788 3.1634710289 
3.1616192079 3.1559335475 3.1488259635 3.1329187424 3.1219360317 3.1172947752 3.1080510877 3.102897594 3.0970477408 
3.0895281625 3.0783383924 3.0678775475 3.0585428265 3.0510028683 3.0388738031 3.0960427156 3.1182546345 3.1369262115 
3.1460715761 3.1544626985 3.1641928656 3.1737037279 3.1782071685 3.1871708687 3.1955383198 3.2007159971 3.2071636249 
3.2084906692 3.2145511193 3.2175667577 3.209037987 3.2010704185 3.1513721004 3.1133126881 3.0743519186 3.0787405385 
3.0712658349 3.0633237673 3.0525933672 3.0419106862 3.0330727053 3.0267827498 3.0260470173 3.1746638252 3.2163154054 
3.143221056 3.2127421573 3.1263780957 3.1579300494 3.1517141444 3.211260239 3.1149666613 3.1149939866 3.2058682184 
3.1116449427 3.08368037 3.07853752 3.1197565931 3.2052641714 3.16318187 3.1513400884 3.1521603676 3.0772310641 
3.1108617445 3.0199440624 3.0296523901 3.0013429378 3.0042578293 2.9845664355 2.9944211099 3.0084741681 3.0422156101 
3.0639779277 3.0411560941 3.113490617 3.0612560747 3.0790635509 3.097389608 3.107844226 3.1194136023 3.1289868753 
3.1430097126 3.1515025389 3.1597434086 3.1632959705 3.1667530827 3.1683144022 3.1646627539 3.1564909047 3.1462996848 
3.127841587 3.1206297675 3.1174132801 3.1077095474 3.1023719009 3.0967988219 3.0893594105 3.0781078602 3.0674281178 
3.0582054823 3.0507579886 3.0385751429 3.100751908 3.1240993419 3.1397422252 3.1513681179 3.1602897995 3.1706458969 
3.1838778766 3.1934935068 3.2016300191 3.2090161144 3.2141710476 3.2190217456 3.2188111016 3.2229474845 3.2250495314 
3.2129020811 3.2016408113 3.1491492977 3.0717592838 3.0704431185 3.0752484748 3.0681660948 3.0613765168 3.0509031153 
3.0402205643 3.031140467 3.0244726695 3.0232431207 3.173028611 3.2247046542 3.1384693032 3.2183344177 3.121620073 
3.1546968351 3.149902169 3.2208673354 3.1166787687 3.1154105306 3.2096983714 3.1118045225 3.0781514439 3.072711005 
3.1194520465 3.2090807016 3.160035181 3.1496377983 3.142611746 3.0664776433 3.1097309249 3.0198671513 3.0311773975 
3.0013354818 3.0089731603 2.9887377904 2.9962273647 3.009592296 3.0442308262 3.0652971053 3.0403590267 3.112922862 
3.0625147936 3.0800295151 3.097144115 3.108414478 3.1207273406 3.1314049606 3.1453837578 3.1549685337 3.1639189225 
3.1673432413 3.1699972429 3.1713315475 3.1663014931 3.1551369446 3.1418321227 3.1240261883 3.119506357 3.1184184146 
3.1069021392 3.1019622367 3.0968713692 3.0894340862 3.0783756064 3.0677417872 3.058621759 3.0510966353 3.039032458 
3.1026329147 3.1261749876 3.1413227249 3.154456074 3.1626625484 3.1746986299 3.1862427816 3.1943225384 3.205696189 
3.2160790909 3.2239274519 3.228192545 3.2284349725 3.2314330003 3.2328822155 3.2194086033 3.2034792181 3.1465315534 
3.0706079209 3.0721425475 3.0721349153 3.0662043162 3.059739033 3.0494943786 3.039251215 3.0298408639 3.0237059048 
3.0216632144 3.1722533318 3.2331452465 3.1328196236 3.2268260919 3.1188977148 3.151685094 3.1480984671 3.23009434 
3.1170443597 3.1155795866 3.2145726648 3.1113472614 3.0735063584 3.0712592089 3.1194634767 3.2128265739 3.156640223 
3.1478525539 3.1048585123 3.0749562216 3.1089682498 3.0200145408 3.0318700641 3.002505718 3.0107654209 2.9895495466 
2.9976064798 3.0112172736 3.0453175323 3.0674505785 3.040755453 3.1123438471 3.0631943643 3.0809830015 3.0977439888 
3.1093054991 3.1218821409 3.1331555908 3.1475942413 3.1574324085 3.1672072265 3.1707640184 3.1731922791 3.1736449016 
3.1669792236 3.1524818189 3.1365106678 3.1212183601 3.1197967755 3.1188562559 3.1062050618 3.1014598214 3.0967910982 
3.0894741542 3.0785494921 3.0680300935 3.0589205294 3.0513816344 3.0394659861 3.1045993244 3.1285781343 3.1435697639 
3.157035852 3.1657043782 3.1780824279 3.1900751046 3.1987023797 3.2109477329 3.2211412649 3.2310857063 3.2350632548 
3.236988876 3.2400835314 3.2422034822 3.2284992042 3.2090438711 3.1421390553 3.0755690971 3.0760430309 3.068941875 
3.0639929582 3.0577353318 3.0477472768 3.0379516242 3.0286254907 3.0232473551 3.0207472009 3.1727674324 3.2416567008 
3.12723927 3.2384992008 3.1174672988 3.1472444139 3.1413805013 3.2388142919 3.1173440967 3.1151757941 3.2219751445 
3.1106922639 3.0712098146 3.0730783116 3.1198023572 3.2194539218 3.1524986595 3.144123583 3.061265066 3.0802505102 
3.1081919923 3.0200128887 3.0320833514 3.0025607009 3.0105213059 2.9895414518 2.997837071 3.011609709 3.0457932427 
3.0683640494 3.040992761 3.11169487 3.0634906975 3.0815971995 3.0985398863 3.1103324557 3.1229106117 3.134589073 
3.1494183421 3.1604568673 3.1691815219 3.1731160083 3.1757217226 3.1755635377 3.166898997 3.1492499845 3.1312783261 
3.119830724 3.1201109604 3.1193471464 3.1057877074 3.1011938197 3.096581379 3.0895089636 3.0786657834 3.0682247428 
3.0591197743 3.051604007 3.039736034 3.1057088767 3.130087558 3.1452037895 3.1590277134 3.1677403147 3.1802924113 
3.192642284 3.2014130148 3.2141715987 3.2254142864 3.236291537 3.2418158475 3.2443658057 3.2481036227 3.2493534462 
3.2417009874 3.2218009975 3.1356133196 3.074660041 3.0757389856 3.0670754674 3.062470056 3.0561720617 3.0462409573 
3.0366351487 3.0275429005 3.0226894965 3.0199874296 3.1775962862 3.2494725449 3.1226081772 3.2513031307 3.1177201536 
3.1408845473 3.1223146331 3.2465102289 3.1172444704 3.1145191969 3.2360599577 3.1101242524 3.0684856036 3.0711621111 
3.1199997156 3.2331517712 3.1487817616 3.1371839219 3.0567225032 3.0754024082 3.1076456818 3.0196396446 3.0324929754 
3.0028002281 3.0106791358 2.9901560756 2.9983297664 3.0118741787 3.0462993332 3.0689467462 3.0412532695 3.110922444 
3.0638161353 3.0820680026 3.0992466529 3.1112177706 3.1238070644 3.1357620973 3.15081897 3.1623061343 3.1714673313 
3.1757690562 3.1778270627 3.1771805278 3.166522124 3.1459474448 3.1267213268 3.1189105349 3.1202065733 3.1194736962 
3.1053812448 3.1010340277 3.0966041554 3.0895883109 3.0787730471 3.0683440921 3.0592363787 3.0517574852 3.040037657 
3.1064729433 3.131213133 3.1462843643 3.1603432428 3.1693974695 3.1819046344 3.1945102701 3.2035371364 3.2165493729 
3.2286986551 3.2392605917 3.2462858156 3.2504003797 3.2549320787 3.2570373607 3.2587101692 3.2458242605 3.1271538879 
3.0702512233 3.0727789279 3.0648040338 3.0607453779 3.0542919994 3.044655691 3.0351420296 3.0261594733 3.0215909399 
3.0188253046 3.1928819297 3.2548688001 3.1191351289 3.2611892385 3.1175173203 3.1337860515 3.0922703813 3.2528773446 
3.1171349714 3.113618528 3.2577975389 3.1095752004 3.065332185 3.0660707735 3.1203450304 3.2559224301 3.1502170907 
3.1247787514 3.0659625206 3.0778548891 3.1072523793 3.0187671538 3.032835657 3.0030956579 3.0109499553 2.9906186387 
2.9988287953 3.0122976236 3.0467981934 3.0695125843 3.0416718647 3.1104474302 3.0641718509 3.0825974509 3.0998979426 
3.1119459854 3.1245826793 3.1367336709 3.1521244955 3.1639545157 3.1732531124 3.1778852374 3.1799570875 3.1786572434 
3.1659883962 3.1430003178 3.1231486999 3.117214886 3.1210687479 3.1194954927 3.105003772 3.1008599633 3.0967003027 
3.0896704925 3.078894259 3.0683942125 3.0592698774 3.0518267977 3.0403359835 3.1071132283 3.1320760121 3.147097895 
3.1613075246 3.1706334846 3.1831803438 3.1960457662 3.2052907102 3.2184377836 3.2312607942 3.2416818155 3.2500831684 
3.2547527627 3.2598816879 3.2618879053 3.2705978286 3.2863351795 3.1172218716 3.0582996247 3.0676013032 3.0622166866 
3.0578468479 3.0513687319 3.0423769327 3.0329587527 3.024051558 3.0196932061 3.016794183 3.2219881422 3.261341319 
3.1167458497 3.2693157527 3.1181254644 3.1274115412 3.0637224614 3.2575476069 3.1167216457 3.1131154671 3.2817808469 
3.1092184865 3.0629467247 3.0629884793 3.1205699877 3.2856869677 3.1634888105 3.1049143298 3.0617230507 3.0755093278 
3.1071712759 3.0175667242 3.0329513787 3.0032216884 3.0110818296 2.9907316113 2.9990196378 3.0125100131 3.0470239423 
3.0698677096 3.0418999621 3.110246275 3.0643682752 3.0828989361 3.1003435172 3.1124570504 3.1251406443 3.1374166168 
3.1531133872 3.1651693702 3.1747633705 3.1794934581 3.1817338997 3.1798742978 3.1654643282 3.1405480859 3.1205176102 
3.1171914677 3.1223694093 3.1200364939 3.1048431569 3.1007544506 3.096772931 3.0896872757 3.0789971895 3.0683560787 
3.0592326935 3.0517904092 3.0405387483 3.1075187058 3.132636066 3.1476670652 3.1619334208 3.1713521714 3.18401714 
3.1971364892 3.2066797933 3.2199947096 3.2331488782 3.2438728833 3.2523858408 3.2579206761 3.2646622628 3.265911965 
3.2758847132 3.331338139 3.1067692204 3.0539354909 3.061081962 3.0581569394 3.0537840869 3.0476847508 3.0394925702 
3.0301799769 3.0213091326 3.0171560689 3.0141396607 3.2658098253 3.2641946364 3.1152232423 3.2677055615 3.1188750979 
3.1247712127 3.0509830312 3.2610644878 3.1165309223 3.1128569761 3.2960271609 3.1092020214 3.0595141003 3.0591595697 
3.1209478414 3.3132467457 3.2018912485 3.0773367069 3.066100685 3.0673146889 3.1072299201 3.0161733213 3.0329269092 
3.0031755313 3.0109994995 2.9906567118 2.9990444193 3.012519585 3.0470829014 3.0700042661 3.0419427418 3.1102971557 
3.0644173478 3.0830215844 3.100486154 3.1126203539 3.1254074626 3.1378089117 3.1537583588 3.1660162354 3.1758620442 
3.1807014288 3.1830767086 3.1807966277 3.1648893412 3.1386131472 3.1185730057 3.1176741246 3.1231036476 3.1204209698 
3.1047337321 3.1005775726 3.0967050855 3.0895445656 3.0790101967 3.068291379 3.0591488681 3.0517205377 3.0407196747 
3.1077355864 3.1329351774 3.1479788377 3.1623405417 3.1717447127 3.1845460052 3.197788009 3.2076486052 3.2212114626 
3.2345968204 3.2456446474 3.2542115196 3.260163316 3.2674334877 3.2688369879 3.2774591142 3.3408061444 3.0970621587 
3.0520073434 3.0551088538 3.0534563381 3.0489712995 3.0432612609 3.0360085503 3.0269097162 3.0181095337 3.0142223922 
3.0111029993 3.3385270725 3.2682138423 3.114026421 3.2659648176 3.118685377 3.1376830439 3.0495164658 3.263842753 
3.116574842 3.1127685681 3.2920973961 3.1092976627 3.0550210396 3.0544249758 3.1208105961 3.3141945535 3.2720194622 
3.0481347147 3.0576524684 3.0623333745 3.1073528776 3.0147052578 3.0328867084 3.003110132 3.0108318243 2.9905818318 
2.9990762756 3.0125190905 3.0471541638 3.0701040769 3.0419352114 3.110167863 3.0644212907 3.0831387796 3.1004428508 
3.1125721781 3.1255611824 3.1380931852 3.1542034471 3.1666887718 3.1766787837 3.1816714997 3.1842165346 3.1815167881 
3.1643865806 3.1371287517 3.1171038445 3.1172878943 3.1241628303 3.1205758824 3.1046042454 3.100382845 3.0965100586 
3.0893142015 3.0789560476 3.0682593499 3.0590981973 3.0516546754 3.0408507939 3.107927995 3.1331698099 3.1482285291 
3.1627231409 3.1720868947 3.184997875 3.198266397 3.2083679287 3.2222324388 3.2358036753 3.2470272806 3.2558485287 
3.2618631205 3.2694961227 3.2722529902 3.2716675032 3.3245806211 3.0965211106 3.0466454287 3.0496221738 3.0477495361 
3.043636527 3.0384304902 3.0321947107 3.0233857907 3.0147373825 3.0111294264 3.0078424567 3.3728877094 3.2718258276 
3.1131283253 3.265152938 3.1196035486 3.1860784572 3.0484282423 3.2656826848 3.1166023679 3.1125365858 3.2844394329 
3.109411225 3.049505315 3.0493320121 3.1210638866 3.310379818 3.3448349994 3.0256642423 3.0509369358 3.0616706096 
3.1073451168 3.0133082971 3.0329197391 3.0031145136 3.0107085275 2.9905693495 2.9991752362 3.0125846553 3.0473000237 
3.0702785972 3.0419573122 3.1098212063 3.0644822502 3.0833335597 3.1004282728 3.1125616881 3.1257525247 3.1384527265 
3.1546513689 3.1673808398 3.1774100769 3.1826273115 3.185228817 3.1822523164 3.1641345173 3.1359676254 3.1159575062 
3.1167981786 3.1245677513 3.120685835 3.1043711101 3.1001497198 3.0963100107 3.0890514878 3.0788731167 3.0682007745 
3.0590152229 3.0514910702 3.040925348 3.1081948082 3.133480009 3.1485615551 3.1632108458 3.1725380226 3.1855295603 
3.1988113057 3.2090512974 3.2232408319 3.2369096685 3.2482638382 3.2571993544 3.263324143 3.2718592627 3.2743370015 
3.2709563864 3.316147315 3.1212140615 3.0372109657 3.0426722093 3.0413199416 3.0381428246 3.0336351841 3.0283527662 
3.0199318698 3.0115297085 3.0082963564 3.0047404367 3.3595711766 3.2736196663 3.112103592 3.2703401871 3.1200171616 
3.2932719954 3.0420910773 3.2669152964 3.1165046454 3.1120090824 3.2755134124 3.1093427424 3.0424194496 3.0425096027 
3.1211644124 3.2932906324 3.397333313 3.0064475526 3.0419679733 3.0566442988 3.1071699992 3.0120181457 3.033100433 
3.0032720918 3.0107610327 2.9906697124 2.9993681878 3.0127226035 3.0476058967 3.0705826344 3.0421130326 3.1095347354 
3.0647431072 3.0836626192 3.1005830632 3.1127719364 3.1260806419 3.138893931 3.1551759123 3.1681213505 3.1781312818 
3.1836001416 3.1862658205 3.1831187296 3.1642811638 3.1351202604 3.1151394131 3.1161424264 3.1246234729 3.1205187904 
3.1039841828 3.0997432855 3.0959677317 3.0886478127 3.0785921857 3.0678844239 3.0587146596 3.0510799719 3.0408647857 
3.1085836343 3.1339320236 3.1489940909 3.1637985864 3.1731164629 3.1861467252 3.1994875203 3.2097809348 3.2242750583 
3.2378775596 3.2495689977 3.258249067 3.2645876235 3.2733785505 3.2756412727 3.271810533 3.303757202 3.1885072048 
3.0227950072 3.0327357603 3.0346277311 3.0332308034 3.0292983558 3.0247239656 3.0167418094 3.0087020659 3.005933455 
3.0019972965 3.3419357687 3.274756073 3.1112983925 3.2739804762 3.1196122103 3.4477387446 3.0281117933 3.2680912264 
3.1162806588 3.111509403 3.2691589973 3.1091724528 3.034793619 3.034496939 3.1209942033 3.2857504953 3.4167671024 
2.982098471 3.0262071831 3.0475611763 3.1070364329 3.0108000051 3.0333610966 3.0036154824 3.0111641909 2.9909526251 
2.9996506808 3.0129632987 3.0479900277 3.0709449681 3.0423899334 3.109489751 3.0650572229 3.083938556 3.1009035759 
3.1131666019 3.1264620612 3.1392374497 3.1556487497 3.1685039752 3.1787827409 3.1845146555 3.1873464998 3.1841527324 
3.1647647669 3.1345933084 3.114378394 3.1156583768 3.1245372885 3.1202397136 3.1036892131 3.0994480036 3.0954825571 
3.0880080349 3.0779534078 3.0672792752 3.0581514261 3.0504851209 3.0407335833 3.1087998494 3.1343224115 3.1493695355 
3.164217072 3.173574827 3.1866342689 3.2000798872 3.2104502018 3.2249752799 3.238583468 3.2505037879 3.2593476271 
3.2657963923 3.2740492993 3.2789406282 3.2740605092 3.3034932693 3.1922268821 3.0043603815 3.0245144721 3.0292463098 
3.0295627873 3.0259136034 3.0216598171 3.0140727652 3.0064005603 3.0040680601 2.9996723173 3.3801563251 3.2766947181 
3.1105422611 3.2769453211 3.11924263 3.6136978337 3.0128692915 3.2694089995 3.1161659053 3.1113030885 3.2699337188 
3.1093732133 3.0279694913 3.0281165854 3.1209697457 3.2870453737 3.4237132106 2.9660828703 3.0116040682 3.0387356619 
3.1068392205 3.0100125993 3.0324176215 3.0030322394 3.0112955172 2.9902909934 2.9993721273 3.0128494154 3.0472472001 
3.070714726 3.0422250147 3.1092344334 3.0647080014 3.0836915436 3.1011923162 3.1134971528 3.1267467152 3.1390861826 
3.1558996383 3.1680643332 3.1794716289 3.1856808534 3.1886480768 3.185902119 3.1652356746 3.1339609537 3.1135573399 
3.1159299034 3.1239632708 3.1202103934 3.1034740944 3.0991265284 3.0950213851 3.0872463944 3.0770314963 3.0665646021 
3.057465487 3.0498938366 3.0400798652 3.1083534461 3.1341792259 3.1493902831 3.1641371229 3.1735864033 3.1868945271 
3.2002900266 3.2108380447 3.2252414094 3.2391890089 3.2516708151 3.260421336 3.267320976 3.2761379711 3.2814216833 
3.2754749692 3.3131167697 3.0521081443 3.0012841986 3.0194061782 3.0270091568 3.028527936 3.0250921632 3.0204655957 
3.0129277245 3.0053007395 3.0032745073 2.998503893 3.391010411 3.2793579808 3.1103547769 3.2803582903 3.1196362752 
3.5982939638 3.0096807903 3.2710114877 3.1165828126 3.1113695039 3.2748064747 3.1092297958 3.0244914949 3.0248223019 
3.1207670249 3.2929434871 3.4375351991 2.9846664982 3.0083748266 3.023426642 3.1067421237 3.0105855589 3.0314664192 
3.0014069138 3.0074267123 2.9883500573 2.9978571047 3.0119525925 3.046094436 3.0699210162 3.0418234018 3.109016315 
3.0648203166 3.0839014155 3.1018270538 3.1134828296 3.1270201548 3.1387523855 3.1572836978 3.1699109058 3.1820820165 
3.1896840549 3.1916752863 3.1885407559 3.164639864 3.1330159276 3.1132725184 3.1167141225 3.1237372119 3.1209794804 
3.1037914669 3.099439285 3.0946407383 3.0868426559 3.0761116197 3.0656888306 3.0564801611 3.0488992622 3.037823122 
3.1081013904 3.1336234737 3.149866544 3.164860257 3.1742050356 3.1874438101 3.2005944905 3.2117421748 3.2268520708 
3.2413245631 3.2541024257 3.2655139144 3.2706258224 3.2799502947 3.2821714795 3.2832459673 3.3165509823 3.0187056716 
3.0158870521 3.0252637227 3.0311526123 3.0332058468 3.0284701728 3.0224863195 3.0149737275 3.0072399232 3.0054921068 
3.0007866254 3.3697556438 3.2825985445 3.1108092668 3.2851172202 3.120217952 3.3779985682 3.0264632935 3.2741482331 
3.1163237583 3.1108557174 3.2813745815 3.1096397907 3.0295430338 3.0290311086 3.1216952005 3.3017652705 3.4085557474 
3.0203389686 3.0237492305 3.0274575189 3.1065816265 3.0145673314 3.0334550717 3.0049480855 3.0093095048 2.9896990238 
3.000642805 3.0149266525 3.0502279079 3.0709449885 3.0462162398 3.1114482286 3.0657159233 3.0867456241 3.104187999 
3.1170666809 3.1307963685 3.1416885982 3.1632749108 3.1815281841 3.1899333966 3.1958124205 3.1959041166 3.1868581733 
3.1577049342 3.1292801303 3.1157691538 3.1194039211 3.1229172488 3.1187080641 3.1028622567 3.099957416 3.0941259653 
3.0841284099 3.0742629212 3.062362423 3.0535163217 3.0462233275 3.0339426567 3.1059746787 3.133675038 3.1546835409 
3.1692896656 3.1777146086 3.1947913963 3.2047503426 3.2149240816 3.2325851956 3.2460241603 3.2615534037 3.2687533273 