# vtk DataFile Version 4.2
vtk output
ASCII
DATASET UNSTRUCTURED_GRID
POINTS 1740 double
2144.07 -94.44003 0 2911 0 0 16.54298 -37.82236 0 
5.09149 -21.30132 0 1.27433 -10.75385 0 0 0 0 
2.54575 15.14293 0 6.36291 23.76126 0 14.00014 34.89063 0 
30.50239 50.70793 0 33.39435 -52.93479 0 2050.91 -103.7862 0 
60.1465 -69.72165 0 88.83633 -83.2817 0 118.7656 -94.71113 0 
153.4168 -105.7022 0 199.5806 -117.771 0 261.4466 -130.7139 0 
345.846 -144.1892 0 460.3522 -157.0592 0 608.4185 -167.1903 0 
783.2313 -172.4016 0 941.0559 -172.4533 0 1063.409 -170.1096 0 
1164.153 -166.8746 0 1263.449 -162.682 0 1375.468 -156.8941 0 
1513.293 -148.414 0 1665.281 -137.5317 0 1791.864 -127.3721 0 
2195.451 -89.09491 0 2273.924 -80.67077 0 2383.731 -68.3513 0 
2517.64 -52.47337 0 2649.227 -35.9232 0 2740.773 -23.82991 0 
2804.387 -15.13419 0 2848.802 -8.916218 0 2881.944 -4.196067 0 
56.61447 67.79801 0 84.09687 81.25172 0 112.4783 92.48395 0 
142.1748 102.3504 0 174.8563 111.6168 0 213.124 120.8806 0 
260.3759 130.5151 0 324.6539 141.1779 0 418.1422 152.9178 0 
535.6656 162.9871 0 690.9154 170.4255 0 902.6513 172.7852 0 
1100.32 169.0517 0 1270.99 162.3262 0 1462.794 151.6837 0 
1631.287 140.0952 0 1747.993 131 0 1922.788 115.9027 0 
2069.56 101.951 0 2128.804 96.0021 0 2297.147 78.11721 0 
2414.379 64.80104 0 2554.023 47.99319 0 2673.693 32.73885 0 
2757.97 21.50315 0 2814.297 13.7575 0 2852.02 8.460961 0 
2882.272 4.148909 0 1791.052 127.4402 0 1366.894 157.3738 0 
1444.38 -152.8302 0 1547.039 146.1296 0 1589.287 -143.1614 0 
1878.731 119.8675 0 1997.072 108.9828 0 1185.654 166.0472 0 
1882.536 -119.5292 0 1971.323 -111.4145 0 1684.777 136.0292 0 
2099.317 -98.9855 0 2234.809 84.9091 0 2181.695 90.53914 0 
1728.573 -132.5703 0 1718.815 133.3509 0 1834.825 123.7132 0 
1960.305 112.4444 0 2033.69 105.4648 0 2099.184 98.99892 0 
2214.291 -70.392092958 396.8421 2955.512 18.413547745 396.8421 158.0786 -23.374586104 396.8421 
147.0109 -7.5293161591 396.8421 143.3217 2.6115796394 396.8421 142.09 12.969570484 396.8421 
144.5505 27.586029425 396.8421 148.2398 35.921540819 396.8421 155.621 46.704833867 396.8421 
171.5701 62.06969605 396.8421 174.3652 -37.823825683 396.8421 2124.254 -79.33959509 396.8421 
200.2206 -53.818167072 396.8421 227.9488 -66.689791079 396.8421 256.8748 -77.500847131 396.8421 
290.3647 -87.859390704 396.8421 334.981 -99.182814865 396.8421 394.7733 -111.25201397 396.8421 
476.3434 -123.7030441 396.8421 587.0114 -135.41184992 396.8421 730.1145 -144.33655776 396.8421 
899.0676 -148.45986819 396.8421 1051.602 -147.78851322 396.8421 1169.853 -145.03289718 396.8421 
1267.221 -141.54833951 396.8421 1363.188 -137.18477885 396.8421 1471.452 -131.28942981 396.8421 
1604.657 -122.79738914 396.8421 1751.55 -112.05110856 396.8421 1873.891 -102.12219144 396.8421 
2263.949 -65.292070741 396.8421 2339.792 -57.277243479 396.8421 2445.918 -45.602611361 396.8421 
2575.338 -30.627437162 396.8421 2702.515 -15.092748368 396.8421 2790.992 -3.7833633501 396.8421 
2852.473 4.3292098592 396.8421 2895.4 10.120959007 396.8421 2927.431 14.512732959 396.8421 
196.807 78.727938836 396.8421 223.3682 91.888272766 396.8421 250.7983 102.91133771 396.8421 
279.4994 112.62459784 396.8421 311.0855 121.77724235 396.8421 348.0705 130.96154244 396.8421 
393.7383 140.55790898 396.8421 455.8617 151.24774481 396.8421 546.2162 163.14351541 396.8421 
659.8003 173.54419294 396.8421 809.846 181.57127694 396.8421 1014.485 184.8935231 396.8421 
1205.528 182.13449211 396.8421 1370.477 176.25921155 396.8421 1555.851 166.54248438 396.8421 
1718.696 155.7155288 396.8421 1831.49 147.10954466 396.8421 2000.426 132.67375538 396.8421 
2142.278 119.20259815 396.8421 2199.537 113.42668132 396.8421 2362.236 95.962785079 396.8421 
2475.539 82.875277596 396.8421 2610.501 66.267536576 396.8421 2726.16 51.120311595 396.8421 
2807.613 39.923694478 396.8421 2862.05 32.187219686 396.8421 2898.509 26.889177813 396.8421 
2927.749 22.571471172 396.8421 1873.106 143.72107089 396.8421 1463.165 171.77573717 396.8421 
1538.054 -127.20329636 396.8421 1637.272 161.376488 396.8421 1678.104 -117.5934576 396.8421 
1957.846 136.48053313 396.8421 2072.22 126.00619375 396.8421 1288 179.55635572 396.8421 
1961.524 -94.50983469 396.8421 2047.334 -86.673626267 396.8421 1770.393 151.87814022 396.8421 
2171.038 -74.738782188 396.8421 2301.989 102.61123099 396.8421 2250.655 108.10742075 396.8421 
1812.721 -107.19173654 396.8421 1803.29 149.34139885 396.8421 1915.411 140.16269729 396.8421 
2036.686 129.34506744 396.8421 2107.61 122.60571622 396.8421 2170.909 116.33860808 396.8421 
2284.511 -49.706871972 793.6842 3000.027 34.736321508 793.6842 299.6143 -11.272001694 793.6842 
288.9304 3.9233689094 793.6842 285.3691 13.668524458 793.6842 284.1801 23.637425307 793.6842 
286.5551 37.729837469 793.6842 290.1167 45.780072387 793.6842 297.2417 56.209676895 793.6842 
312.6379 71.102358669 793.6842 315.336 -25.091902189 793.6842 2197.597 -58.342058496 793.6842 
340.2947 -40.343941883 793.6842 367.0612 -52.578449711 793.6842 394.9839 -62.822723931 793.6842 
427.3123 -72.606497749 793.6842 470.3812 -83.258838165 793.6842 528.0998 -94.549436634 793.6842 
606.8411 -106.09833719 793.6842 713.6708 -116.798301 793.6842 851.8104 -124.69070934 793.6842 
1014.904 -127.8983718 793.6842 1162.147 -126.62820645 793.6842 1276.298 -123.53577035 793.6842 
1370.288 -119.84932298 793.6842 1462.927 -115.34887314 793.6842 1567.436 -109.36924458 793.6842 
1696.021 -100.87018704 793.6842 1837.82 -90.234850705 793.6842 1955.917 -80.490449636 793.6842 
2332.447 -44.798379913 793.6842 2405.659 -37.102716235 793.6842 2508.105 -25.929613196 793.6842 
2633.037 -11.654547648 793.6842 2755.801 3.0946406186 793.6842 2841.209 13.798642804 793.6842 
2900.561 21.461264219 793.6842 2941.997 26.924391217 793.6842 2972.917 31.063050771 793.6842 
336.9995 87.294424194 793.6842 362.6396 100.12390904 793.6842 389.1182 110.8984949 793.6842 
416.8239 120.41737327 793.6842 447.3145 129.41097433 793.6842 483.0167 138.46306482 793.6842 
527.1009 147.95692824 793.6842 587.0697 158.5880949 793.6842 674.2905 170.51973816 793.6842 
783.9349 181.10984865 793.6842 928.7766 189.55512499 793.6842 1126.317 193.64385979 793.6842 
1310.735 191.71913321 793.6842 1469.963 186.61006817 793.6842 1648.908 177.76943814 793.6842 
1806.105 167.70306533 793.6842 1914.987 159.61004209 793.6842 2078.064 145.91127434 793.6842 
2214.996 133.02275238 793.6842 2270.269 127.47133958 793.6842 2427.326 110.60856132 793.6842 
2536.699 97.905476627 793.6842 2666.98 81.717066362 793.6842 2778.628 66.894741242 793.6842 
2857.255 55.907512165 793.6842 2909.806 48.301977019 793.6842 2945.001 43.08760771 793.6842 
2973.224 38.83468687 793.6842 1955.16 156.40688841 793.6842 1559.437 182.56450367 793.6842 
1631.729 -105.26653159 793.6842 1727.505 172.98593678 793.6842 1766.921 -95.706463759 793.6842 
2036.96 149.53627542 793.6842 2147.368 139.54306971 793.6842 1390.347 189.52085475 793.6842 
2040.511 -73.060931645 793.6842 2123.346 -65.444661322 793.6842 1856.009 164.10254585 793.6842 
2242.759 -53.897918195 793.6842 2369.167 117.04095611 793.6842 2319.614 122.34691212 793.6842 
1896.869 -85.457443126 793.6842 1887.765 161.71503905 793.6842 1995.998 153.03456009 793.6842 
2113.066 142.73495063 793.6842 2181.531 136.28684588 793.6842 2242.634 130.27182111 793.6842 
2354.732 -32.384012792 1190.526 3044.539 48.609054358 1190.526 441.15 -1.333314263 1190.526 
430.8497 13.235437295 1190.526 427.4164 22.594577635 1190.526 426.2701 32.180446945 1190.526 
428.5601 45.750903353 1190.526 431.9934 53.513539113 1190.526 438.8627 63.582517166 1190.526 
453.7057 77.984905663 1190.526 456.3069 -14.554536054 1190.526 2270.94 -40.761193575 1190.526 
480.3688 -29.109745535 1190.526 506.1737 -40.753710121 1190.526 533.0934 -50.478200954 1190.526 
564.26 -59.740031428 1190.526 605.7815 -69.789392399 1190.526 661.4265 -80.388975464 1190.526 
737.3385 -91.149369844 1190.526 840.33 -100.98363242 1190.526 973.5064 -108.01083938 1190.526 
1130.74 -110.47376805 1190.526 1272.693 -108.73347295 1190.526 1382.742 -105.38704599 1190.526 
1473.356 -101.55551681 1190.526 1562.666 -96.963713612 1190.526 1663.42 -90.93830132 1190.526 
1787.385 -82.460993369 1190.526 1924.09 -71.943182582 1190.526 2037.944 -62.368146201 1190.526 
2400.946 -27.632135991 1190.526 2471.527 -20.195526189 1190.526 2570.292 -9.4255104605 1190.526 
2690.735 4.2926107818 1190.526 2809.091 18.422457569 1190.526 2891.43 28.652142579 1190.526 
2948.647 35.963537723 1190.526 2988.597 41.170672091 1190.526 3018.403 45.112523576 1190.526 
477.1918 93.679414514 1190.526 501.9109 106.14367594 1190.526 527.4382 116.63373289 1190.526 
554.1485 125.92021815 1190.526 583.5435 134.71288726 1190.526 617.963 143.5841178 1190.526 
660.4633 152.91580014 1190.526 718.2775 163.40839195 1190.526 802.3645 175.26307457 1190.526 
908.0698 185.90727775 1190.526 1047.707 194.60510053 1190.526 1238.151 199.26294766 1190.526 
1415.942 198.02225698 1190.526 1569.449 193.57937895 1190.526 1741.965 185.53901866 1190.526 
1893.514 176.20099936 1190.526 1998.484 168.61880238 1190.526 2155.702 155.68659894 1190.526 
2287.714 143.43737224 1190.526 2341.001 138.14194169 1190.526 2492.415 121.99773445 1190.526 
2597.858 109.7861885 1190.526 2723.46 94.172721664 1190.526 2831.095 79.833748185 1190.526 
2906.899 69.181753611 1190.526 2957.56 61.798021629 1190.526 2991.49 56.731195128 1190.526 
3018.699 52.596038364 1190.526 2037.214 165.60463272 1190.526 1655.708 189.92883323 1190.526 
1725.403 -86.83599494 1190.526 1817.738 181.11770687 1190.526 1855.738 -77.344107795 1190.526 
2116.075 159.11866775 1190.526 2222.516 149.64271008 1190.526 1492.694 196.15024023 1190.526 
2119.498 -55.098601765 1190.526 2199.357 -47.669864764 1190.526 1941.625 172.83416065 1190.526 
2314.479 -36.446937944 1190.526 2436.346 128.16570017 1190.526 2388.573 133.24479492 1190.526 
1981.017 -67.242413848 1190.526 1972.24 170.59577528 1190.526 2076.584 162.4243326 1190.526 
[...]
POINT_DATA 1740
FIELD FieldData 1
Pressure 1 1740 double
3.1042119122 3.0185945606 3.0096484125 2.9862309904 2.9772947517 2.9548220215 2.9695059064 2.9870732717 3.0184974278 
3.0317426306 3.0114044914 3.1080394388 3.0352081396 3.0497094716 3.0667093392 3.0660574964 3.0830463968 3.0880176544 
3.1093530794 3.1137931971 3.1325258256 3.1411937427 3.1429159846 3.1488122305 3.143068029 3.1387351505 3.1352720092 
3.1311680259 3.1244640833 3.1188291567 3.1015121732 3.098304718 3.0926950888 3.0848199845 3.0739385285 3.0641294896 
3.0539522337 3.0455916566 3.036295152 3.0678398999 3.0801669419 3.0927598649 3.105445096 3.1110389912 3.1188505521 
3.1259819982 3.1341426823 3.1500649957 3.163196293 3.1791400433 3.1901836115 3.1972412588 3.2034262006 3.2090016965 
3.2131617837 3.2161978851 3.2172102379 3.1671976832 3.0990628502 3.0874669679 3.0818442595 3.0726640987 3.0628523803 
3.0525615029 3.0419885799 3.0348171688 3.0329623778 3.2161066305 3.2066724554 3.1338373104 3.2104490972 3.1277874383 
3.2168070807 3.2179779201 3.2040897144 3.1150252282 3.1114220426 3.2142402752 3.1060410424 3.0914794135 3.0923792559 
3.1215371928 3.2158047871 3.2166564486 3.2180791398 3.2240467784 3.0901972672 3.1010415619 3.0231351432 3.0268935374 
3.0001977089 3.0070042309 2.9846961349 2.9937782915 3.0061315904 3.0340046253 3.0520000491 3.0368954746 3.1052283839 
3.0568802742 3.0694983209 3.08269234 3.0863995797 3.1020384504 3.111027593 3.1246515422 3.1294387237 3.140203434 
3.1439146467 3.1474966459 3.1475920841 3.1423577916 3.1375655817 3.1318444586 3.1276827589 3.1214561102 3.1158548198 
3.0986440708 3.0946631947 3.0889850639 3.0812005956 3.0703216161 3.0605477999 3.0507804271 3.0434545865 3.0273166944 
3.0849041409 3.1053989135 3.1169665635 3.1258571678 3.1345872141 3.139747835 3.1450998707 3.1547504413 3.1673134302 
3.1772276866 3.1860009499 3.1940472167 3.2006550063 3.2071972421 3.2104832325 3.2132587364 3.2163146554 3.2187793122 
3.0879307513 3.0971152214 3.0908299307 3.0846917521 3.0758638679 3.0652229866 3.0551106398 3.0446596636 3.0384583933 
3.0392429091 3.2169834139 3.2088443578 3.1307687621 3.2128561183 3.1242627303 3.2182426706 3.2184482783 3.2058331474 
3.1119788005 3.108324505 3.2146644855 3.1033334335 3.0938986001 3.096119138 3.1188509953 3.2155222506 3.2170365198 
3.217431745 3.1818397165 3.0962656075 3.0984948934 3.0230756921 3.0275833666 3.0005667357 3.0014882485 2.9833220259 
2.9964977688 3.0099337867 3.0385623231 3.0593876567 3.0454851452 3.1026273513 3.0601565012 3.079268658 3.0971412427 
3.1029339325 3.1163824283 3.124491344 3.1367525335 3.1421717151 3.1501155023 3.1522174038 3.1509449882 3.1488135662 
3.1415221995 3.1357027393 3.129827028 3.1246566933 3.1187377216 3.1136430237 3.0962505736 3.0924275611 3.0867479939 
3.0790436985 3.0681772838 3.0582624909 3.0491298944 3.0420526321 3.0287202181 3.0913629823 3.1130828338 3.1310359798 
3.1404038283 3.1534892833 3.1607834741 3.1703171884 3.1745738117 3.1831629999 3.1932225497 3.1980777338 3.2037151146 
3.2069136603 3.2138136337 3.2162018815 3.2171493221 3.2193231076 3.2219606771 3.0904966715 3.0916624299 3.0898486455 
3.0845938729 3.0765941558 3.0659038009 3.0560553276 3.0460912264 3.038981242 3.0406314005 3.2197108588 3.2149141329 
3.1279074104 3.2171863307 3.1214382734 3.220607074 3.2181118752 3.2112904581 3.109775096 3.1059213864 3.2177930231 
3.1009027001 3.0921028909 3.0926261765 3.116079722 3.2183007337 3.2199303349 3.2222390563 3.0835391652 3.0866905689 
3.0966280023 3.0233510061 3.0285103598 3.0005977516 3.0021315245 2.9815978865 2.9921513172 3.0062794181 3.0387731404 
3.0599526604 3.0459496465 3.1006487148 3.0662539547 3.0838818298 3.1034373111 3.1114205065 3.1243268553 3.1317300341 
3.1443970064 3.1506244704 3.1572405399 3.1571695635 3.1540025125 3.1493263982 3.1408829554 3.1348186728 3.1286851449 
3.12277253 3.1167278733 3.1114518667 3.0942414434 3.0905146475 3.085223459 3.0775439775 3.0670823096 3.0571984591 
3.0486355452 3.0414538314 3.029535413 3.0945960502 3.1181182334 3.1333376935 3.1456837252 3.1520567214 3.1636767686 
3.1762945101 3.1845063264 3.1926742898 3.2040060186 3.2094379296 3.213720454 3.2154842047 3.2218538349 3.223565389 
3.2239085823 3.225489947 3.2316643941 3.0900287789 3.0910357345 3.0897986151 3.084639309 3.0765212148 3.0661016769 
3.0562418395 3.0466668517 3.0391526392 3.0407238102 3.2253468589 3.22270662 3.1263123687 3.2243941264 3.119603969 
3.2258261442 3.0822696488 3.2192574249 3.1077473063 3.1039572141 3.2244606641 3.0986982253 3.0914872071 3.0912550841 
3.1138529162 3.2246060042 3.2257254138 3.1358480483 3.087428735 3.0904776087 3.0950122072 3.0231042284 3.0305636626 
3.0013397436 3.0054270323 2.9851457792 2.9936889071 3.007019408 3.0404123036 3.0609250908 3.0476475509 3.0990654335 
3.0694280333 3.0869777637 3.1044686163 3.1138600266 3.1269611331 3.1371682783 3.1476058506 3.1544556952 3.1612438973 
3.1599140942 3.1548519522 3.1483486107 3.1394234255 3.133101341 3.1268462734 3.1210261458 3.1149772299 3.1095285791 
3.0927917343 3.088998844 3.0839737385 3.0763839401 3.0662679588 3.0565580892 3.0483246326 3.0409619194 3.0301600225 
3.0956798014 3.1194540979 3.1343924542 3.1472079939 3.1566845218 3.1675110083 3.1786871571 3.1842710321 3.1952298079 
3.2083367713 3.2174387974 3.2209109344 3.2234092023 3.229259854 3.2306575505 3.2306493866 3.231917722 3.2075124534 
3.0899981925 3.0902302691 3.0884979795 3.0833451134 3.0754563393 3.0652854666 3.0555938613 3.0461762771 3.038656134 
3.0401029893 3.2319649033 3.2301717669 3.1246142391 3.2311797705 3.1179242368 3.2319591173 3.0881612747 3.2269669074 
3.1059599498 3.1022855684 3.231157172 3.0970133362 3.0903350604 3.0905199227 3.1120249137 3.2313723365 3.2320081291 
3.0805155311 3.0899717073 3.0900123432 3.0937141108 3.0223365768 3.0314681695 3.0021769058 3.0063266503 2.9859776552 
2.9949441273 3.0082961275 3.0410983012 3.0626076881 3.0494493696 3.0976382115 3.0712882508 3.0896555025 3.1059792026 
3.1159050427 3.1291301485 3.140048138 3.1512860403 3.159148089 3.1646140399 3.1620278528 3.1551991195 3.1468604148 
3.1378917829 3.1314331629 3.1251737058 3.1193089857 3.1133520432 3.1080281547 3.0914512661 3.0877028107 3.0828521396 
3.0753412159 3.0654817676 3.0557989568 3.0477704406 3.0403384226 3.0304985372 3.0967058418 3.1207927552 3.1355984688 
3.1483886606 3.157553422 3.1690716297 3.1814548734 3.1884556145 3.1996215125 3.2124289549 3.2231482554 3.2284906491 
3.2309000632 3.2369990069 3.2382459889 3.23759391 3.2383532333 3.0971706748 3.0898616932 3.0893159962 3.0869703592 
3.0817508406 3.07403024 3.064019368 3.0543788211 3.0452765291 3.0375977039 3.0391357564 3.2383957665 3.2377557881 
3.1229770319 3.2382957505 3.1162542763 3.2396019088 3.0892737115 3.2344039074 3.1044783869 3.1009224306 3.2378068271 
3.0954904761 3.0890249494 3.0891180924 3.1104000736 3.2379665364 3.2381298711 3.0884724738 3.0893872944 3.0898554301 
3.092760612 3.0215940436 3.0316295617 3.0023998848 3.005579614 2.9857492956 2.9948716776 3.0085485007 3.0411082586 
3.0630941496 3.0503106252 3.0966215359 3.0722116011 3.0911339849 3.1072359485 3.1176545333 3.1309166898 3.1426317268 
3.153508544 3.1616533252 3.1673535064 3.1635413677 3.155072297 3.1453496126 3.1367774377 3.1302093155 3.1240640623 
3.1177974714 3.1121705278 3.1068715083 3.0904442476 3.0867765734 3.0820041475 3.0745958977 3.0648583918 3.0551841636 
3.047248813 3.0397577698 3.0304847224 3.0971161832 3.1213750167 3.1362424596 3.1490474669 3.1586389107 3.1701653486 
3.1823488636 3.1902326596 3.2017972118 3.2154466191 3.2269705586 3.2338619238 3.2376372389 3.2441352724 3.2455011532 
3.2453278621 3.2451884731 3.0840904421 3.0886636254 3.088087537 3.084945416 3.079830723 3.0723899784 3.0626413391 
3.0531178897 3.0442857341 3.0365904713 3.0383092419 3.2451892347 3.2454553582 3.1216007251 3.2458281761 3.1149446787 
3.2591988701 3.0881027214 3.2413071965 3.1033429834 3.0998965279 3.2449802577 3.0945438659 3.0870137937 3.087626249 
3.1092869636 3.2449519522 3.2453403895 3.0874474578 3.0879615596 3.0884598646 3.092165794 3.021110958 3.0318761678 
3.0026521496 3.005620443 2.9860762393 2.9949298459 3.0086628582 3.0412925675 3.0632919717 3.0507436416 3.0959165465 
3.0727402378 3.0917009424 3.1077223735 3.1186045598 3.1318801685 3.1442467072 3.1548796101 3.1631256521 3.1692892023 
3.1645105711 3.1547443821 3.1442516654 3.1362367726 3.1295010225 3.1235046331 3.1168754357 3.1115972409 3.1063382708 
3.0899032734 3.0863838513 3.0816147671 3.0742989527 3.0645820123 3.0547863257 3.0468856726 3.0394204117 3.0303793498 
3.0973782995 3.1217585686 3.136756051 3.1495690647 3.1592597463 3.170855681 3.1830299748 3.1916770021 3.2035826989 
3.2173350687 3.2295604793 3.2380188843 3.2427967477 3.2501047291 3.2524677177 3.2523162437 3.2522357344 3.0823650759 
3.0871301761 3.0864103266 3.0830928836 3.0782350346 3.0710579253 3.0615051494 3.0521359449 3.0435314768 3.0358408051 
3.0378082055 3.2525539063 3.2519285447 3.1207662164 3.2524930652 3.1142396548 3.2601512828 3.086709827 3.2467259088 
3.1027763921 3.0994005987 3.2521454032 3.0939030005 3.0851624379 3.0858860253 3.1087920702 3.2519909158 3.2528633945 
3.0865557816 3.0864602469 3.0870102779 3.0920414839 3.02074683 3.0321662497 3.0029039264 3.0060053637 2.9864912062 
2.9952089364 3.0090102993 3.0417052214 3.0637187596 3.0508543518 3.0958612549 3.0729723674 3.0920694863 3.1077170045 
3.1189746353 3.1322569039 3.1451818348 3.1556296394 3.1639601805 3.1707013255 3.1652445769 3.154564031 3.1437616523 
3.1362753943 3.129362172 3.1234757606 3.1167617174 3.1115814935 3.1062657202 3.0899341488 3.0864100126 3.0816227155 
3.0743706094 3.0646214057 3.0548389592 3.0468898195 3.0394314949 3.030277536 3.0978942688 3.1222863292 3.1374365217 
3.1502906936 3.1600827321 3.1717056667 3.183772272 3.1929273587 3.2052164132 3.2189674113 3.2315576192 3.2410414554 
3.2466208548 3.2544994071 3.2581688198 3.2582792297 3.258854458 3.0808648344 3.0853195976 3.084724129 3.0814694167 
3.0767783522 3.0697721734 3.0604159664 3.0512635048 3.0428052516 3.0351885322 3.0373740622 3.2589516195 3.256747453 
3.1206831072 3.2585806435 3.1141752202 3.2621662326 3.0843370516 3.2507546888 3.1027230469 3.0994057947 3.2582925152 
3.0937741837 3.0835128275 3.0841004251 3.1087690036 3.2582950297 3.2590923089 3.0848884082 3.0845227931 3.0854144906 
3.0923616451 3.0205634872 3.0325160372 3.0032046689 3.0068534922 2.986946842 2.9955987033 3.0094486178 3.0422679678 
3.0642698811 3.0507516445 3.0962796398 3.0727689562 3.0918529478 3.1075898057 3.119186741 3.132460565 3.1456479585 
3.1560231444 3.1647173101 3.1717705056 3.1659563585 3.1548224639 3.1439673508 3.1368017062 3.1297893312 3.1239864879 
3.1171809173 3.1119479818 3.1066355427 3.0902908725 3.0867923207 3.081917049 3.0747091932 3.0649104672 3.055162625 
3.0471452911 3.0397140936 3.0301218314 3.0986881364 3.1229579799 3.1384098911 3.1513629528 3.1612314931 3.172894613 
3.1848832503 3.1943824122 3.2070222326 3.2206457361 3.2334424912 3.2434592819 3.2494571729 3.2578317678 3.262101263 
3.2630695217 3.2635590501 3.080337394 3.0820386053 3.0818106314 3.0789641611 3.0745471557 3.0678103843 3.0587810869 
3.0499441577 3.0416661711 3.0342462021 3.036623879 3.2639211378 3.260424355 3.1211085504 3.2628810365 3.1146109726 
3.2723456394 3.0810083723 3.2537121452 3.1030551717 3.099474887 3.263200576 3.0942033053 3.0808550068 3.081186547 
3.1092081379 3.2632695862 3.2643130035 3.0822757784 3.0814552614 3.0821708246 3.0931069044 3.0205058334 3.0329072421 
3.0034954351 3.0080503488 2.9875635274 2.9961398707 3.0099891427 3.0429827689 3.0650241431 3.0501257002 3.0971974168 
3.0721094241 3.0912762247 3.1071134199 3.1190089209 3.1321230258 3.1454783141 3.1561292692 3.165041725 3.1725870712 
3.1666773309 3.155609472 3.1447135095 3.1377362291 3.1306428048 3.1248430372 3.1180574876 3.1127428728 3.1074016687 
3.0910100953 3.0874872071 3.0824893048 3.0752890798 3.0654062288 3.0556500259 3.0475365675 3.040151386 3.0299263402 
3.0997539418 3.123881255 3.1397065406 3.1527875755 3.1627113882 3.1744168365 3.1863472826 3.1961510521 3.2090910691 
3.222513867 3.2354379869 3.2457766575 3.2518161944 3.2604069342 3.2651725105 3.2666078308 3.2672870807 3.0780502435 
3.0792243385 3.0788542091 3.076419444 3.0722719423 3.0657362935 3.0569448353 3.0483666146 3.0403061089 3.0331727607 
3.0356894323 3.2678843346 3.263230298 3.12197612 3.2661633752 3.1154295329 3.2793650939 3.0787441718 3.256023407 
3.1037595205 3.1002595482 3.2668647693 3.0950629075 3.0781372276 3.078451619 3.1100562816 3.2669798218 3.2684991353 
3.0789381435 3.0790399684 3.0791664393 3.0940244642 3.0207827131 3.0333211769 3.0037111646 3.009211088 2.9881735144 
2.9966500031 3.0105456202 3.0437574592 3.0658660234 3.0493558649 3.0982034963 3.0712107497 3.0902870245 3.1063042289 
3.1185114601 3.1313744008 3.1449374762 3.1556822819 3.1656678087 3.1726443191 3.1670495461 3.1565153272 3.1457755237 
3.138873274 3.1316815809 3.1258413578 3.1190668119 3.1138002021 3.1083973522 3.091918817 3.088335685 3.0832286603 
3.0759711204 3.0659876708 3.0561891747 3.0479645163 3.040615145 3.0297400795 3.1010498842 3.1251017805 3.1413170195 
3.1545328419 3.1644981914 3.176250891 3.1881463334 3.1981785864 3.2114019729 3.2246491502 3.2376560147 3.2481281104 
3.2541009248 3.2627226286 3.267874533 3.2695781407 3.270260039 3.0777726443 3.0777648841 3.076867093 3.0744499927 
3.0705239129 3.0641144171 3.0554987487 3.0471450825 3.0392357484 3.0324408464 3.0349930758 3.2709193975 3.265710188 
3.122983771 3.2687847556 3.1164084901 3.2829811736 3.0773593166 3.2581764859 3.1047023402 3.1011875302 3.2697229002 
3.0961252828 3.0761222116 3.0765916312 3.1111302066 3.26990134 3.27159724 3.0771049832 3.0773969271 3.0776893694 
3.0949762578 3.0213427216 3.0337415794 3.0038328419 3.0101042566 2.9888652498 2.9972249612 3.0111064275 3.0447026288 
3.0668934177 3.0482743769 3.0990697986 3.070009643 3.088981542 3.1052427214 3.1175697464 3.1303461299 3.1439241742 
3.1551804941 3.1651241821 3.1724855967 3.1674970111 3.1576963123 3.1470961741 3.1401290427 3.1327970526 3.1269503289 
3.1202244931 3.1148468879 3.1094121415 3.0927589919 3.0891369165 3.0839476921 3.076598864 3.0665275438 3.0566774273 
3.048336133 3.0410190699 3.0295863231 3.1026050496 3.1266463979 3.1432216503 3.1565898629 3.1665832067 3.1783705417 
3.1902922673 3.2004948584 3.2140282536 3.2271340697 3.2401242358 3.2506526324 3.2565065875 3.2649621383 3.2703857256 
3.2722301831 3.2728299111 3.0745598867 3.0766668055 3.0758816639 3.0730767177 3.069145347 3.0628873774 3.0544956261 
3.0463944621 3.0386158353 3.0322055169 3.0347542125 3.2735875429 3.2680713011 3.1240965677 3.2712703077 3.1174986839 
3.2835780815 3.0763523192 3.2604251471 3.1055741011 3.1019671981 3.2723335979 3.097049826 3.0748083789 3.0755005618 
3.1121637172 3.2724834705 3.2776100285 3.075676581 3.0763026232 3.076652827 3.0958111403 3.0220537742 3.0341738223 
3.0039328716 3.0108437837 2.9896814472 2.9980570563 3.0118665884 3.0459181754 3.0681512286 3.0470000535 3.099869179 
3.068641726 3.0876685624 3.1035000883 3.1157643653 3.1287388176 3.1424331927 3.1543187282 3.1648202259 3.1719858841 
3.1680476942 3.1592905309 3.1487689083 3.1415578351 3.1340564548 3.1281523712 3.1214702303 3.1157006496 3.1103313616 
3.0935497933 3.0899231895 3.084632618 3.0772122263 3.0670455951 3.0571253722 3.0486794867 3.0413977086 3.0294022126 
3.1044652216 3.128618759 3.1453435412 3.1588803635 3.1689058818 3.1807239426 3.1927544188 3.2030736851 3.2169700886 
3.2298859713 3.2428158682 3.253296029 3.2590894631 3.2673528498 3.2729726186 3.2748381458 3.2754193312 3.0767010744 
3.0747297999 3.0744548284 3.071902497 3.0682209035 3.0621661498 3.0539979453 3.0461328035 3.0384880119 3.0323863671 
3.0350183414 3.2760773399 3.2705103838 3.1253368326 3.27380112 3.1185340575 3.2526159377 3.0749259524 3.2628646932 
3.10639445 3.1027363924 3.2749380926 3.0979159114 3.0733626214 3.0739103644 3.1130588597 3.2751092201 3.2801263781 
3.0771638394 3.0745727435 3.0748514823 3.0967002411 3.0227818192 3.0345373462 3.0040084638 3.0107605957 2.9904981452 
2.9992412207 3.0129054831 3.0472971089 3.0695390061 3.0456940149 3.1008506761 3.0670975503 3.0862722754 3.1013855974 
3.1134783942 3.1267235106 3.1402989262 3.1532110703 3.1635713449 3.1717138268 3.1689499437 3.1612805424 3.1507791464 
3.1430816823 3.1353444854 3.1291758524 3.1226345312 3.1166758519 3.1113638347 3.0944326115 3.0908021629 3.0854115781 
3.0779257472 3.0676143604 3.0575695722 3.0490199168 3.0417298465 3.0291721055 3.1063312107 3.1308995493 3.1474130412 
3.1611161122 3.1712119964 3.1829672055 3.1952967076 3.2057045731 3.2198950748 3.2327031216 3.2454354632 3.2561357552 
3.2619101979 3.269987756 3.2758915388 3.2778287927 3.2786068923 3.0718738193 3.0735250653 3.0733512635 3.0717867592 
3.0682528285 3.0622603568 3.0542684817 3.0465983447 3.039084713 3.0331136123 3.0358404648 3.2798685218 3.2733278283 
3.1264647944 3.2766895827 3.1196709688 3.1455977748 3.0720452788 3.2655905883 3.107431265 3.1037401755 3.278041922 
3.0988533636 3.0730479874 3.0732034403 3.1141759958 3.2782444401 3.2924040813 3.0736253685 3.072955318 3.0735515664 
3.0975855589 3.0235158863 3.033083652 3.0031630473 3.0107635336 2.9903892939 3.0001667859 3.0137231004 3.0475584235 
3.0704916215 3.0437615704 3.1017331156 3.0647396932 3.0841019353 3.099206161 3.1113372898 3.124672517 3.1376262423 
3.1524456087 3.1623261975 3.1717494429 3.1704815624 3.163862883 3.1532635298 3.1447430675 3.1366391838 3.1302564783 
3.1237783194 3.1186194572 3.1127682081 3.0953228097 3.0915603669 3.0861693937 3.07852683 3.0680507547 3.0578319009 
3.0492087479 3.0417515988 3.0284876012 3.107662921 3.1328485032 3.1491540212 3.1627812418 3.1730058599 3.1850652456 
3.1976251469 3.2081278107 3.2224467115 3.2355155704 3.248857593 3.258761024 3.26519344 3.273631388 3.2807429062 
3.2818810329 3.2823972571 3.0657031644 3.0745213454 3.0744775073 3.0732823275 3.0696850164 3.0636706845 3.0556874236 
3.0481098999 3.0404179554 3.0344393839 3.037387009 3.2954341023 3.2773174602 3.1277009162 3.2815518893 3.1207587704 
3.0517414296 3.0726939271 3.2688576905 3.1088524506 3.10474876 3.2821257013 3.0997133582 3.0745637604 3.0744290181 
3.11573725 3.2825685855 3.2233052101 3.0702814182 3.0741235576 3.0744474098 3.0981185806 3.0239929057 3.0316012296 
3.0011599668 3.0064533923 2.9888932747 2.9995558266 3.013581944 3.04723661 3.0709546144 3.0412847297 3.1021679277 
3.0629810221 3.0820385908 3.0981502727 3.1095906309 3.1233324148 3.1352633602 3.1527780055 3.1626699878 3.1731494314 
3.1749957509 3.1677399923 3.1566287214 3.1462755785 3.1378154991 3.1309232143 3.1242551096 3.118568211 3.113618778 
3.0959954788 3.0920667112 3.086681814 3.0791480761 3.0682968548 3.0577788307 3.0490177937 3.0413336594 3.0274546798 
3.1091666004 3.1343988111 3.1509268283 3.1652479912 3.1753481941 3.1875586453 3.1999996045 3.2111125241 3.2265087466 
3.2400595064 3.2535193579 3.2664819518 3.270668368 3.2783016321 3.2840611736 3.283227094 3.2934359437 3.0763870636 
3.0765239346 3.0766570087 3.076652961 3.0726868462 3.0666963988 3.0579977467 3.0505091475 3.0427749739 3.0364943916 
3.0397533142 3.2413235119 3.2817973509 3.128044486 3.284014951 3.1214989542 3.0832757796 3.075155902 3.2737397087 
3.1088661305 3.1051878488 3.2851815397 3.1002803775 3.0775930718 3.0780798848 3.1162759897 3.2846125068 3.0536516154 
3.0749773466 3.0754798657 3.0765175265 3.0981641712 3.027171807 3.0327547562 3.004416406 3.0082674023 2.990472961 
3.0026630298 3.0170793705 3.0535171215 3.0735602703 3.0438566049 3.101319302 3.0628357131 3.0827447305 3.0983599757 
3.1116806369 3.1249786781 3.1371017937 3.1563454963 3.1769608307 3.1800870968 3.1788885185 3.1700135554 3.1562032313 
3.1451536938 3.1367523545 3.1295608492 3.1229953756 3.1165672282 3.1112621422 3.0951117623 3.0927306709 3.0873497799 
3.0780340775 3.0685727228 3.0573525252 3.0483075987 3.0395881034 3.0265913548 3.1087424514 3.1354720229 3.1571754902 
3.1714646006 3.1804688032 3.1979640829 3.2068095851 3.2174173232 3.2350316696 3.2476716306 3.2637693765 3.2720441079 