# vtk DataFile Version 4.2
vtk output
ASCII
DATASET POLYDATA
POINTS 6604 float
2572.42 -2522.11 5800 2580.89 -2524.74 5800 2609.9 -2533.73 5800 
2625.86 -2522.1 5800 2530.51 -2509.11 5800 2551.89 -2515.74 5800 
2638.9 -2515.55 5800 2645.68 -2509.1 5800 2491.84 -2496.11 5800 
2493.89 -2497.75 5800 2522.89 -2506.74 5800 2659.36 -2496.1 5800 
2471.08 -2483.11 5800 2667.9 -2487.98 5800 2673.04 -2483.1 5800 
2451.97 -2470.11 5800 2464.89 -2480.17 5800 2686.71 -2470.1 5800 
2435.27 -2457.1 5800 2435.9 -2457.59 5800 2696.9 -2460.41 5800 
2700.39 -2457.1 5800 2418.57 -2444.1 5800 2714.06 -2444.09 5800 
2401.87 -2431.1 5800 2406.9 -2435.02 5800 2725.91 -2433.43 5800 
2728.72 -2431.09 5800 2385.17 -2418.1 5800 2744.81 -2418.09 5800 
2368.47 -2405.1 5800 2377.9 -2412.44 5800 2754.91 -2409.93 5800 
2760.9 -2405.09 5800 2350.8 -2392.1 5800 2776.99 -2392.09 5800 
2328.85 -2379.1 5800 2348.9 -2390.79 5800 2783.91 -2386.49 5800 
2793.07 -2379.09 5800 2306.56 -2366.1 5800 2319.9 -2373.88 5800 
2809.16 -2366.09 5800 2284.5 -2353.1 5800 2290.9 -2356.96 5800 
2812.92 -2363.05 5800 2825.25 -2353.08 5800 2266.48 -2340.1 5800 
2841.34 -2340.08 5800 2249.46 -2327.1 5800 2261.9 -2336.6 5800 
2841.92 -2339.61 5800 2857.42 -2327.08 5800 2232.44 -2314.1 5800 
2232.9 -2314.45 5800 2870.92 -2316.17 5800 2873.51 -2314.08 5800 
2215.42 -2301.1 5800 2889.6 -2301.08 5800 2198.4 -2288.1 5800 
2203.9 -2292.3 5800 2899.92 -2292.73 5800 2905.69 -2288.08 5800 
2181.38 -2275.1 5800 2921.78 -2275.07 5800 2171.07 -2262.1 5800 
2174.9 -2270.15 5800 2928.93 -2269.3 5800 2937.61 -2262.07 5800 
2166.86 -2249.1 5800 2953.89 -2249.07 5800 2166.89 -2236.1 5800 
2957.93 -2245.81 5800 2968.11 -2236.07 5800 2167.6 -2223.1 5800 
2982.17 -2223.07 5800 2168.31 -2210.1 5800 2986.93 -2218.79 5800 
2996.25 -2210.07 5800 2169.02 -2197.09 5800 3010.14 -2197.07 5800 
2169.73 -2184.09 5800 3015.94 -2191.63 5800 3024.02 -2184.06 5800 
2170.44 -2171.09 5800 3037.91 -2171.06 5800 2171.15 -2158.09 5800 
3044.94 -2164.48 5800 3049.52 -2158.06 5800 2171.86 -2145.09 5800 
3055.17 -2145.06 5800 2172.57 -2132.09 5800 3056.09 -2132.06 5800 
2173.28 -2119.09 5800 3057.01 -2119.06 5800 2173.99 -2106.09 5800 
3057.92 -2106.06 5800 2174.7 -2093.09 5800 3058.84 -2093.06 5800 
2174.91 -2089.24 5800 2175.41 -2080.08 5800 3059.76 -2080.05 5800 
2176.13 -2067.08 5800 3060.63 -2067.05 5800 2176.77 -2054.08 5800 
3061.28 -2054.05 5800 2174.45 -2041.08 5800 2174.92 -2043.69 5800 
3061.75 -2041.05 5800 2172.19 -2028.08 5800 3062.07 -2028.05 5800 
2169.93 -2015.08 5800 3062.38 -2015.05 5800 2167.67 -2002.08 5800 
3062.7 -2002.05 5800 2165.41 -1989.08 5800 3063.02 -1989.05 5800 
2163.15 -1976.08 5800 3063.34 -1976.05 5800 2160.89 -1963.08 5800 
3063.65 -1963.05 5800 2158.63 -1950.08 5800 3063.97 -1950.04 5800 
2156.37 -1937.07 5800 3064.29 -1937.04 5800 2154.11 -1924.07 5800 
3064.61 -1924.04 5800 2151.85 -1911.07 5800 3064.93 -1911.04 5800 
2149.59 -1898.07 5800 3065.24 -1898.04 5800 2147.33 -1885.07 5800 
3065.56 -1885.04 5800 2145.07 -1872.07 5800 2145.93 -1877.01 5800 
3065.88 -1872.04 5800 2142.81 -1859.07 5800 3066.2 -1859.04 5800 
2140.55 -1846.07 5800 3066.51 -1846.04 5800 2138.29 -1833.07 5800 
3066.83 -1833.04 5800 2136.03 -1820.07 5800 3067.15 -1820.03 5800 
2133.77 -1807.07 5800 3067.47 -1807.03 5800 2131.51 -1794.06 5800 
3067.78 -1794.03 5800 2129.25 -1781.06 5800 3068.1 -1781.03 5800 
2126.99 -1768.06 5800 3068.42 -1768.03 5800 2124.73 -1755.06 5800 
3068.74 -1755.03 5800 2122.47 -1742.06 5800 3069.05 -1742.03 5800 
2120.21 -1729.06 5800 3069.37 -1729.03 5800 2117.88 -1716.06 5800 
3071.45 -1716.03 5800 2115.52 -1703.06 5800 2116.94 -1710.9 5800 
3073.97 -1706.23 5800 3075.16 -1703.03 5800 2113.16 -1690.06 5800 
3086.89 -1690.02 5800 2110.8 -1677.06 5800 3095.64 -1677.02 5800 
2108.45 -1664.06 5800 3102.98 -1667.97 5800 3106.17 -1664.02 5800 
2106.09 -1651.05 5800 3116.71 -1651.02 5800 2103.73 -1638.05 5800 
3127.25 -1638.02 5800 2101.38 -1625.05 5800 3131.98 -1632.17 5800 
3137.78 -1625.02 5800 2099.02 -1612.05 5800 3148.32 -1612.02 5800 
2096.66 -1599.05 5800 3158.85 -1599.01 5800 2094.3 -1586.05 5800 
3160.99 -1596.38 5800 3169.39 -1586.01 5800 2091.95 -1573.05 5800 
3179.92 -1573.01 5800 2094.66 -1560.05 5800 3189.99 -1560.59 5800 
3190.46 -1560.01 5800 2098.39 -1547.05 5800 3200.93 -1547.01 5800 
2100.7 -1534.05 5800 3208.43 -1534.01 5800 2104.81 -1521.04 5800 
3214.15 -1521.01 5800 2108.51 -1508.04 5800 3218.99 -1509.98 5800 
3219.75 -1508.01 5800 2110.29 -1495.04 5800 3223.99 -1495 5800 
2111.96 -1482.04 5800 3227.24 -1482 5800 2113.64 -1469.04 5800 
3229.81 -1469 5800 2115.32 -1456.04 5800 3231.89 -1456 5800 
2113.61 -1443.04 5800 3232.57 -1443 5800 2112.3 -1430.04 5800 
3232.93 -1430 5800 2111.23 -1417.04 5800 3233.28 -1417 5800 
2110.35 -1404.04 5800 3233.64 -1404 5800 2109.6 -1391.03 5800 
3233.99 -1391 5800 2108.96 -1378.03 5800 3234.35 -1377.99 5800 
2108.41 -1365.03 5800 3234.71 -1364.99 5800 2107.93 -1352.03 5800 
3235.06 -1351.99 5800 2107.31 -1339.03 5800 3235.42 -1338.99 5800 
2106.36 -1326.03 5800 3235.78 -1325.99 5800 2105.44 -1313.03 5800 
3236.13 -1312.99 5800 2104.52 -1300.03 5800 3236.49 -1299.99 5800 
2103.61 -1287.03 5800 3236.85 -1286.99 5800 2102.71 -1274.03 5800 
3237.27 -1273.99 5800 2101.88 -1261.02 5800 3237.7 -1260.99 5800 
2101.05 -1248.02 5800 3238.13 -1247.98 5800 2100.22 -1235.02 5800 
3238.55 -1234.98 5800 2099.4 -1222.02 5800 3238.96 -1221.98 5800 
2098.57 -1209.02 5800 3239.36 -1208.98 5800 2097.74 -1196.02 5800 
3239.76 -1195.98 5800 2096.91 -1183.02 5800 3240.16 -1182.98 5800 
2096.08 -1170.02 5800 3240.6 -1169.98 5800 2095.25 -1157.02 5800 
3241.14 -1156.98 5800 2094.42 -1144.02 5800 3241.68 -1143.98 5800 
2093.59 -1131.01 5800 3242.22 -1130.98 5800 2092.76 -1118.01 5800 
3242.75 -1117.97 5800 2091.93 -1105.01 5800 3243.29 -1104.97 5800 
2091.1 -1092.01 5800 3243.94 -1091.97 5800 2089.7 -1079.01 5800 
3244.86 -1078.97 5800 2086.4 -1066.01 5800 2087.99 -1072.27 5800 
3245.78 -1065.97 5800 2083.11 -1053.01 5800 3246.76 -1052.97 5800 
2079.82 -1040.01 5800 3247.76 -1039.97 5800 2077.07 -1027.01 5800 
3248.03 -1036.39 5800 3248.76 -1026.97 5800 2076.47 -1014.01 5800 
3249.76 -1013.97 5800 2076.06 -1001.01 5800 3250.77 -1000.96 5800 
2077.64 -988.004 5800 3251.77 -987.964 5800 2079.82 -975.003 5800 
3252.78 -974.963 5800 2082 -962.002 5800 3253.78 -961.962 5800 
2084.18 -949.001 5800 3254.78 -948.961 5800 2086.37 -936 5800 
3255.79 -935.96 5800 2088 -926.256 5800 2088.54 -922.999 5800 
3256.79 -922.959 5800 2090.69 -909.998 5800 3257.38 -909.958 5800 
2092.86 -896.997 5800 3256.99 -896.957 5800 2095.03 -883.996 5800 
3256.69 -883.956 5800 2097.21 -870.995 5800 2551.57 -870.979 5800 
2552.02 -871.279 5800 2581.02 -880.286 5800 2608.74 -870.977 5800 
3255.33 -870.955 5800 2099.4 -857.994 5800 2531.87 -857.979 5800 
2610.02 -870.545 5800 2639.02 -860.359 5800 2644.83 -857.975 5800 
3252.86 -857.954 5800 2101.6 -844.993 5800 2513.51 -844.978 5800 
2523.02 -852.142 5800 2668.03 -848.452 5800 2683.19 -844.972 5800 
3250.38 -844.953 5800 2103.81 -831.991 5800 2496.34 -831.978 5800 
2697.03 -840.155 5800 2726.03 -840.85 5800 2735.58 -831.97 5800 
3248.05 -832.687 5800 3247.91 -831.952 5800 2106 -818.99 5800 
2480.19 -818.977 5800 2494.02 -830.219 5800 2747.13 -818.968 5800 
3245.43 -818.951 5800 2108.18 -805.989 5800 2464.11 -805.977 5800 
2465.02 -806.654 5800 2755.03 -808.187 5800 2756.29 -805.967 5800 
3242.96 -805.95 5800 2110.34 -792.988 5800 2441.2 -792.977 5800 
2763.63 -792.966 5800 3240.23 -792.949 5800 2112.5 -779.987 5800 
2427.11 -779.976 5800 2436.02 -790.765 5800 2776.86 -779.964 5800 
3237.01 -779.948 5800 2114.67 -766.986 5800 2418.98 -766.976 5800 
2784.04 -773.088 5800 2790.42 -766.963 5800 3233.8 -766.948 5800 
2114.88 -753.985 5800 2411.12 -753.975 5800 2803.98 -753.961 5800 
3232.25 -753.947 5800 2113.37 -740.984 5800 2402.54 -740.974 5800 
2407.03 -747.199 5800 2813.04 -745.279 5800 2818.03 -740.96 5800 
3231.02 -740.946 5800 2111.48 -727.983 5800 2394.03 -727.973 5800 
2833.74 -727.958 5800 3230 -727.945 5800 2109.62 -714.982 5800 
2386.53 -714.973 5800 2842.04 -721.111 5800 2849.51 -714.957 5800 
3229.13 -714.944 5800 2107.78 -701.981 5800 2379.68 -701.972 5800 
2863.52 -701.955 5800 3228.52 -701.943 5800 2106.48 -688.98 5800 
2369.57 -688.971 5800 2378.03 -699.268 5800 2871.05 -691.428 5800 
2872.05 -688.954 5800 3228.48 -688.942 5800 2106.84 -675.979 5800 
2360.24 -675.971 5800 2877.35 -675.953 5800 3228.45 -675.941 5800 
2109.61 -662.978 5800 2352.14 -662.97 5800 2882.64 -662.952 5800 
3228.4 -662.94 5800 2112.43 -649.977 5800 2345.31 -649.969 5800 
2349.03 -657.48 5800 2888.01 -649.95 5800 3228.33 -649.939 5800 
2115.29 -636.976 5800 2340.04 -636.968 5800 2893.52 -636.949 5800 
3228.26 -636.938 5800 2117.02 -628.758 5800 2117.98 -623.975 5800 
2334.71 -623.967 5800 2899.13 -623.948 5800 3228.2 -623.937 5800 
2120.53 -610.974 5800 2329.37 -610.967 5800 2900.05 -621.82 5800 
2904.88 -610.947 5800 3228.13 -610.936 5800 2123.11 -597.973 5800 
2325.34 -597.966 5800 2910.64 -597.946 5800 3228.06 -597.935 5800 
2125.73 -584.972 5800 2318.01 -584.965 5800 2320.03 -588.101 5800 
2918.25 -584.944 5800 3227.99 -584.934 5800 2127.73 -571.971 5800 
2311.33 -571.964 5800 2926.57 -571.943 5800 3227.92 -571.933 5800 
2127.91 -558.97 5800 2304.66 -558.964 5800 2929.06 -568.05 5800 
2934.22 -558.942 5800 3229.61 -558.932 5800 2128.18 -545.969 5800 
2297.86 -545.963 5800 2941.26 -545.941 5800 3231.4 -545.931 5800 
2128.07 -532.968 5800 2291.29 -532.962 5800 2570.94 -532.952 5800 
2581.05 -536.323 5800 2588.15 -532.952 5800 2948.01 -532.939 5800 
3233.2 -532.93 5800 2125.95 -519.967 5800 2284.52 -519.961 5800 
2291.04 -532.452 5800 2525.5 -519.953 5800 2552.05 -527.502 5800 
2610.05 -521.678 5800 2613.08 -519.95 5800 2954.28 -519.938 5800 
3234.99 -519.928 5800 2123.85 -506.966 5800 2277.75 -506.96 5800 
2467.03 -506.954 5800 2494.05 -513.091 5800 2523.05 -519.255 5800 
2635.88 -506.948 5800 2958.06 -511.874 5800 2960.48 -506.937 5800 
[...]
POINT_DATA 6604
SCALARS Pressure double
LOOKUP_TABLE default
3.0932710339 3.0932710339 3.0932710339 3.0932710339 3.0932710339 3.0932710339 3.0932710339 3.0932710339 3.0932710339 
3.0932710339 3.0932710339 3.0932710339 3.0932710339 3.0932710339 3.0932710339 3.0932710339 3.0932710339 3.0932710339 
3.0932710339 3.0932710339 3.0932710339 3.0932710339 3.0932710339 3.0932710339 3.0932710339 3.0932710339 3.0932710339 
3.0932710339 3.0932710339 3.0932710339 3.0932710339 3.0932710339 3.0932710339 3.0932710339 3.0932710339 3.0932710339 
3.0932710339 3.0932710339 3.0932710339 3.0932710339 3.0932710339 3.0932710339 3.0932710339 3.0932710339 3.0932710339 
3.0932710339 3.0932710339 3.0932710339 3.0932710339 3.0932710339 3.0932710339 3.0932710339 3.0932710339 3.0932710339 
3.0932710339 3.0932710339 3.0932710339 3.0932710339 3.0932710339 3.0932710339 3.0932710339 3.0932710339 3.0932710339 
3.0932710339 3.0932710339 3.0932710339 3.0932710339 3.0932710339 3.0932710339 3.0932710339 3.0932710339 3.0932710339 
3.0932710339 3.0932710339 3.0932710339 3.0932710339 3.0932710339 3.0932710339 3.0932710339 3.0932710339 3.0932710339 
3.0932710339 3.0932710339 3.0932710339 3.0932710339 3.0932710339 3.0932710339 3.0932710339 3.0932710339 3.0932710339 
3.0932710339 3.0932710339 3.0932710339 3.0932710339 3.0932710339 3.0932710339 3.0932710339 3.0932710339 3.0932710339 
3.0932710339 3.0932710339 3.0932710339 3.0932710339 3.0932710339 3.0932710339 3.0932710339 3.0932710339 3.0932710339 
3.0932710339 3.0932710339 3.0932710339 3.0932710339 3.0932710339 3.0932710339 3.0932710339 3.0932710339 3.0932710339 
3.0932710339 3.0932710339 3.0932710339 3.0932710339 3.0932710339 3.0932710339 3.0932710339 3.0932710339 3.0932710339 
3.0932710339 3.0932710339 3.0932710339 3.0932710339 3.0932710339 3.0932710339 3.0932710339 3.0932710339 3.0932710339 
3.0932710339 3.0932710339 3.0932710339 3.0932710339 3.0932710339 3.0932710339 3.0932710339 3.0932710339 3.0932710339 
3.0932710339 3.0932710339 3.0932710339 3.0932710339 3.0932710339 3.0932710339 3.0932710339 3.0932710339 3.0932710339 
3.0932710339 3.0932710339 3.0932710339 3.0932710339 3.0932710339 3.0932710339 3.0932710339 3.0932710339 3.0932710339 
3.0932710339 3.0932710339 3.0932710339 3.0932710339 3.0932710339 3.0932710339 3.0932710339 3.0932710339 3.0932710339 
3.0932710339 3.0932710339 3.0932710339 3.0932710339 3.0932710339 3.0932710339 3.0932710339 3.0932710339 3.0932710339 
3.0932710339 3.0932710339 3.0932710339 3.0932710339 3.0932710339 3.0932710339 3.0932710339 3.0932710339 3.0932710339 
3.0932710339 3.0932710339 3.0932710339 3.0932710339 3.0932710339 3.0932710339 3.0932710339 3.0932710339 3.0932710339 
3.0932710339 3.0932710339 3.0932710339 3.0932710339 3.0932710339 3.0932710339 3.0932710339 3.0932710339 3.0932710339 
3.0932710339 3.0932710339 3.0932710339 3.0932710339 3.0932710339 3.0932710339 3.0932710339 3.0932710339 3.0932710339 
3.0932710339 3.0932710339 3.0932710339 3.0932710339 3.0932710339 3.0932710339 3.0932710339 3.0932710339 3.0932710339 
3.0932710339 3.0932710339 3.0932710339 3.0932710339 3.0932710339 3.0932710339 3.0932710339 3.0932710339 3.0932710339 
3.0932710339 3.0932710339 3.0932710339 3.0932710339 3.0932710339 3.0932710339 3.0932710339 3.0932710339 3.0932710339 
3.0932710339 3.0932710339 3.0932710339 3.0932710339 3.0932710339 3.0932710339 3.0932710339 3.0932710339 3.0932710339 
3.0932710339 3.0932710339 3.0932710339 3.0932710339 3.0932710339 3.0932710339 3.0932710339 3.0932710339 3.0932710339 
3.0932710339 3.0932710339 3.0932710339 3.0932710339 3.0932710339 3.0932710339 3.0932710339 3.0932710339 3.0932710339 
3.0932710339 3.0932710339 3.0932710339 3.0932710339 3.0932710339 3.0932710339 3.0932710339 3.0932710339 3.0932710339 
3.0932710339 3.0932710339 3.0932710339 3.0932710339 3.0932710339 3.0932710339 3.0932710339 3.0932710339 3.0932710339 
3.0932710339 3.0932710339 3.0932710339 3.0932710339 3.0932710339 3.0932710339 3.0932710339 3.0932710339 3.0932710339 
3.0932710339 3.0932710339 3.1078652246 3.1078652246 3.1078652246 3.1078652246 3.0932710339 3.0932710339 3.1078652246 
3.1078652246 3.1078652246 3.1078652246 3.0932710339 3.0932710339 3.1078652246 3.1078652246 3.1078652246 3.1078652246 
3.0932710339 3.0932710339 3.1078652246 3.1078652246 3.1078652246 3.1078652246 3.0932710339 3.0932710339 3.0932710339 
3.1078652246 3.1078652246 3.1078652246 3.0932710339 3.0932710339 3.1078652246 3.1078652246 3.1078652246 3.1078652246 
3.0932710339 3.0932710339 3.1078652246 3.1078652246 3.0932710339 3.0932710339 3.1078652246 3.1078652246 3.1078652246 
3.0932710339 3.0932710339 3.1078652246 3.1078652246 3.1078652246 3.0932710339 3.0932710339 3.1078652246 3.1078652246 
3.0932710339 3.0932710339 3.1078652246 3.1078652246 3.1078652246 3.1078652246 3.0932710339 3.0932710339 3.1078652246 
3.1078652246 3.0932710339 3.0932710339 3.1078652246 3.1078652246 3.1078652246 3.0932710339 3.0932710339 3.1078652246 
3.1078652246 3.0932710339 3.0932710339 3.1078652246 3.1078652246 3.1078652246 3.1078652246 3.0932710339 3.0932710339 
3.1078652246 3.1078652246 3.0932710339 3.0932710339 3.1078652246 3.1078652246 3.0932710339 3.0932710339 3.1078652246 
3.1078652246 3.1078652246 3.0932710339 3.0932710339 3.1078652246 3.1078652246 3.0932710339 3.0932710339 3.0932710339 
3.1078652246 3.1078652246 3.0932710339 3.0932710339 3.1078652246 3.1078652246 3.1078652246 3.0932710339 3.0932710339 
3.1078652246 3.1078652246 3.0932710339 3.0932710339 3.1078652246 3.1078652246 3.1078652246 3.0932710339 3.0932710339 
3.1078652246 3.1078652246 3.0932710339 3.0932710339 3.1078652246 3.1078652246 3.1078652246 3.0932710339 3.0932710339 
3.1078652246 3.1078652246 3.0932710339 3.0932710339 3.1078652246 3.1224594153 3.1224594153 3.1224594153 3.1078652246 
3.0932710339 3.0932710339 3.1078652246 3.1078652246 3.1224594153 3.1224594153 3.1224594153 3.1224594153 3.1078652246 
3.0932710339 3.0932710339 3.1078652246 3.1224594153 3.1224594153 3.1224594153 3.1224594153 3.1078652246 3.1078652246 
3.0932710339 3.0786768432 3.0786768432 3.0786768432 3.0786768432 3.0786768432 3.0786768432 3.0786768432 3.0786768432 
3.0932710339 3.1078652246 3.1224594153 3.1224594153 3.1224594153 3.1224594153 3.1078652246 3.0932710339 3.0786768432 
3.0786768432 3.0786768432 3.0786768432 3.0786768432 3.0786768432 3.0786768432 3.0786768432 3.0786768432 3.0786768432 
3.0786768432 3.0786768432 3.0786768432 3.0932710339 3.1078652246 3.1224594153 3.1224594153 3.1224594153 3.1078652246 
3.0932710339 3.0786768432 3.0786768432 3.0786768432 3.0786768432 3.0786768432 3.0932710339 3.1078652246 3.1224594153 
3.1224594153 3.1224594153 3.1224594153 3.1078652246 3.0932710339 3.0786768432 3.0786768432 3.0786768432 3.0786768432 
3.0786768432 3.0786768432 3.0932710339 3.1078652246 3.1078652246 3.1224594153 3.1224594153 3.1078652246 3.0932710339 
3.0786768432 3.0786768432 3.0786768432 3.0786768432 3.0786768432 3.0786768432 3.0932710339 3.1078652246 3.1224594153 
3.1224594153 3.1224594153 3.1224594153 3.1078652246 3.1078652246 3.0932710339 3.0786768432 3.0786768432 3.0786768432 
3.0786768432 3.0786768432 3.0786768432 3.0932710339 3.1078652246 3.1224594153 3.1224594153 3.1078652246 3.0932710339 
3.0786768432 3.0786768432 3.0786768432 3.0786768432 3.0786768432 3.0786768432 3.0932710339 3.1078652246 3.1224594153 
3.1224594153 3.1224594153 3.1078652246 3.0932710339 3.0932710339 3.0786768432 3.0786768432 3.0786768432 3.0786768432 
3.0932710339 3.1078652246 3.1224594153 3.1224594153 3.1224594153 3.1078652246 3.0932710339 3.0786768432 3.0786768432 
3.0786768432 3.0786768432 3.0786768432 3.0786768432 3.0932710339 3.1078652246 3.1224594153 3.1224594153 3.1078652246 
3.0932710339 3.0786768432 3.0786768432 3.0786768432 3.0786768432 3.0786768432 3.0786768432 3.0786768432 3.0932710339 
3.1078652246 3.1224594153 3.1224594153 3.1224594153 3.1078652246 3.1078652246 3.0932710339 3.0786768432 3.0786768432 
3.0786768432 3.0786768432 3.0786768432 3.0786768432 3.0932710339 3.0932710339 3.1078652246 3.1224594153 3.1224594153 
3.1224594153 3.1078652246 3.0932710339 3.0786768432 3.0786768432 3.0786768432 3.0786768432 3.0932710339 3.1078652246 
3.1224594153 3.1224594153 3.1078652246 3.0932710339 3.0786768432 3.0786768432 3.0786768432 3.0786768432 3.0786768432 
3.0932710339 3.1078652246 3.1224594153 3.1224594153 3.1078652246 3.0932710339 3.0786768432 3.0786768432 3.0786768432 
3.0786768432 3.0786768432 3.0786768432 3.0786768432 3.0932710339 3.1078652246 3.1224594153 3.137053606 3.137053606 
3.137053606 3.137053606 3.137053606 3.1224594153 3.1224594153 3.1078652246 3.0932710339 3.0786768432 3.0786768432 
3.0786768432 3.0786768432 3.0932710339 3.1078652246 3.1078652246 3.1224594153 3.1224594153 3.137053606 3.137053606 
3.137053606 3.137053606 3.1224594153 3.1078652246 3.1078652246 3.0932710339 3.0786768432 3.0786768432 3.0786768432 
3.0786768432 3.0786768432 3.0932710339 3.1078652246 3.1224594153 3.137053606 3.137053606 3.137053606 3.137053606 
3.1224594153 3.1078652246 3.0932710339 3.0786768432 3.0786768432 3.0786768432 3.0786768432 3.0786768432 3.0932710339 
3.1078652246 3.1224594153 3.137053606 3.137053606 3.1224594153 3.1078652246 3.0932710339 3.0786768432 3.0786768432 
3.0786768432 3.0786768432 3.0786768432 3.0786768432 3.0932710339 3.1078652246 3.1224594153 3.137053606 3.137053606 
3.137053606 3.137053606 3.1224594153 3.1224594153 3.1078652246 3.0932710339 3.0786768432 3.0786768432 3.0786768432 
3.0786768432 3.0932710339 3.1078652246 3.1224594153 3.1224594153 3.137053606 3.137053606 3.1224594153 3.1078652246 
3.0932710339 3.0786768432 3.0786768432 3.0786768432 3.0786768432 3.0786768432 3.0932710339 3.1078652246 3.1224594153 
3.137053606 3.137053606 3.137053606 3.137053606 3.1224594153 3.1078652246 3.0932710339 3.0786768432 3.0786768432 
3.0786768432 3.0786768432 3.0932710339 3.1078652246 3.1224594153 3.137053606 3.137053606 3.1224594153 3.1078652246 
3.0932710339 3.0786768432 3.0786768432 3.0786768432 3.0786768432 3.0786768432 3.0932710339 3.1078652246 3.1224594153 
3.137053606 3.137053606 3.137053606 3.1224594153 3.1078652246 3.0932710339 3.0786768432 3.0786768432 3.0786768432 
3.0786768432 3.0932710339 3.1078652246 3.1224594153 3.1224594153 3.137053606 3.137053606 3.1224594153 3.1078652246 
3.0932710339 3.0786768432 3.0786768432 3.0786768432 3.0786768432 3.0786768432 3.0640826525 3.0640826525 3.0640826525 
3.0640826525 3.0640826525 3.0640826525 3.0640826525 3.0640826525 3.0786768432 3.0932710339 3.1078652246 3.1078652246 
3.1224594153 3.137053606 3.137053606 3.137053606 3.1224594153 3.1224594153 3.1078652246 3.0932710339 3.0786768432 
3.0786768432 3.0786768432 3.0786768432 3.0640826525 3.0640826525 3.0640826525 3.0786768432 3.0932710339 3.1078652246 
3.1224594153 3.137053606 3.137053606 3.1516477967 3.1516477967 3.1516477967 3.1516477967 3.1516477967 3.1516477967 
3.137053606 3.1224594153 3.1078652246 3.0932710339 3.0786768432 3.0786768432 3.0786768432 3.0640826525 3.0640826525 
3.0640826525 3.0786768432 3.0932710339 3.1078652246 3.1224594153 3.137053606 3.1516477967 3.1516477967 3.1516477967 
3.1516477967 3.137053606 3.1224594153 3.1078652246 3.0932710339 3.0786768432 3.0786768432 3.0786768432 3.0640826525 
3.0640826525 3.0640826525 3.0786768432 3.0932710339 3.1078652246 3.1224594153 3.137053606 3.137053606 3.1516477967 
3.1516477967 3.137053606 3.1224594153 3.1078652246 3.0932710339 3.0786768432 3.0786768432 3.0786768432 3.0786768432 
3.0640826525 3.0640826525 3.0640826525 3.0786768432 3.0932710339 3.1078652246 3.1224594153 3.1224594153 3.137053606 
3.1516477967 3.1516477967 3.1516477967 3.1516477967 3.137053606 3.1224594153 3.1078652246 3.0932710339 3.0786768432 
3.0786768432 3.0786768432 3.0786768432 3.0640826525 3.0640826525 3.0786768432 3.0932710339 3.1078652246 3.1224594153 
3.137053606 3.1516477967 3.1516477967 3.1516477967 3.137053606 3.1224594153 3.1078652246 3.0932710339 3.0786768432 
3.0786768432 3.0786768432 3.0786768432 3.0786768432 3.0786768432 3.0786768432 3.0640826525 3.0640826525 3.0786768432 
3.0786768432 3.0932710339 3.1078652246 3.1224594153 3.137053606 3.137053606 3.1516477967 3.1516477967 3.137053606 
3.1224594153 3.1078652246 3.0932710339 3.0786768432 3.0786768432 3.0786768432 3.0786768432 3.0786768432 3.0786768432 
3.0640826525 3.0494884618 3.0494884618 3.0494884618 3.0494884618 3.0494884618 3.0640826525 3.0786768432 3.0932710339 
3.1078652246 3.1224594153 3.137053606 3.1516477967 3.1516477967 3.1516477967 3.137053606 3.1224594153 3.1078652246 
3.0932710339 3.0932710339 3.0786768432 3.0786768432 3.0786768432 3.0786768432 3.0640826525 3.0640826525 3.0494884618 
3.0494884618 3.0494884618 3.0640826525 3.0640826525 3.0786768432 3.0932710339 3.1078652246 3.1224594153 3.1224594153 
3.137053606 3.1516477967 3.1516477967 3.137053606 3.1224594153 3.1078652246 3.0932710339 3.0786768432 3.0640826525 
3.0640826525 3.0640826525 3.0786768432 3.0786768432 3.0786768432 3.0786768432 3.0640826525 3.0494884618 3.0494884618 
3.0494884618 3.0640826525 3.0786768432 3.0932710339 3.1078652246 3.1078652246 3.1224594153 3.137053606 3.1516477967 
3.1516477967 3.1516477967 3.137053606 3.1224594153 3.1078652246 3.0932710339 3.0786768432 3.0786768432 3.0640826525 
3.0640826525 3.0640826525 3.0640826525 3.0786768432 3.0786768432 3.0786768432 3.0640826525 3.0494884618 3.0494884618 
3.0494884618 3.0640826525 3.0786768432 3.0932710339 3.0932710339 3.1078652246 3.1224594153 3.137053606 3.137053606 
3.1516477967 3.1516477967 3.137053606 3.1224594153 3.1224594153 3.1078652246 3.0932710339 3.0786768432 3.0640826525 
3.0640826525 3.0640826525 3.0640826525 3.0786768432 3.0786768432 3.0786768432 3.0640826525 3.0494884618 3.0348942711 
3.0348942711 3.0348942711 3.0348942711 3.0494884618 3.0494884618 3.0640826525 3.0786768432 3.0932710339 3.1078652246 
3.1224594153 3.137053606 3.1516477967 2.9473291268 2.9473291268 2.9619233175 2.9619233175 2.9765175082 2.9765175082 
2.991111699 2.991111699 3.0057058897 3.0057058897 3.0203000804 3.0203000804 3.0348942711 3.0348942711 3.0494884618 
3.0494884618 3.0640826525 3.0640826525 3.0786768432 3.0786768432 3.0932710339 3.0932710339 3.1078652246 3.1078652246 
3.1224594153 3.1224594153 3.137053606 3.137053606 3.1516477967 3.1516477967 2.9473291268 2.9619233175 2.9765175082 
2.991111699 3.0057058897 3.0203000804 3.0348942711 3.0494884618 3.0640826525 3.0786768432 3.0932710339 3.1078652246 
3.1224594153 3.137053606 3.1516477967 2.9473291268 2.9619233175 2.9765175082 2.991111699 3.0057058897 3.0203000804 
3.0348942711 3.0494884618 3.0640826525 3.0786768432 3.0932710339 3.1078652246 3.1224594153 3.137053606 3.1516477967 
2.9473291268 2.9619233175 2.9765175082 2.991111699 3.0057058897 3.0203000804 3.0348942711 3.0494884618 3.0640826525 
3.0786768432 3.0932710339 3.1078652246 3.1224594153 3.137053606 3.1516477967 2.9473291268 2.9619233175 2.9765175082 
2.991111699 3.0057058897 3.0203000804 3.0348942711 3.0494884618 3.0640826525 3.0786768432 3.0932710339 3.1078652246 
3.1224594153 3.137053606 3.1516477967 2.9473291268 2.9619233175 2.9765175082 2.991111699 3.0057058897 3.0203000804 
3.0348942711 3.0494884618 3.0640826525 3.0786768432 3.0932710339 3.1078652246 3.1224594153 3.137053606 3.1516477967 
2.9473291268 2.9619233175 2.9765175082 2.991111699 3.0057058897 3.0203000804 3.0348942711 3.0494884618 3.0640826525 
3.0786768432 3.0932710339 3.1078652246 3.1224594153 3.137053606 3.1516477967 2.9473291268 2.9619233175 2.9765175082 
2.991111699 3.0057058897 3.0203000804 3.0348942711 3.0494884618 3.0640826525 3.0786768432 3.0932710339 3.1078652246 
3.1224594153 3.137053606 2.9473291268 2.9619233175 2.9765175082 2.991111699 3.0057058897 3.0203000804 3.0348942711 
3.0494884618 3.0640826525 3.0786768432 3.0932710339 3.1078652246 3.1224594153 3.137053606 3.137053606 3.1224594153 
3.1078652246 3.0932710339 3.0786768432 3.0640826525 3.0640826525 3.0640826525 3.0786768432 3.0786768432 3.0640826525 
3.0494884618 3.0348942711 3.0348942711 3.0348942711 3.0494884618 3.0640826525 3.0786768432 3.0932710339 3.1078652246 
3.1224594153 3.137053606 2.9473291268 2.9473291268 2.9619233175 2.9619233175 2.9765175082 2.9765175082 2.991111699 
2.991111699 3.0057058897 3.0057058897 3.0203000804 3.0203000804 3.0348942711 3.0348942711 3.0494884618 3.0494884618 
3.0640826525 3.0640826525 3.0786768432 3.0786768432 3.0932710339 3.0932710339 3.1078652246 3.1078652246 3.1224594153 
3.1224594153 3.137053606 3.137053606 2.9473291268 2.9619233175 2.9765175082 2.991111699 3.0057058897 3.0203000804 
3.0348942711 3.0494884618 3.0640826525 3.0786768432 3.0932710339 3.1078652246 3.1224594153 3.137053606 3.1516477967 
2.9473291268 2.9619233175 2.9765175082 2.991111699 3.0057058897 3.0203000804 3.0348942711 3.0494884618 3.0640826525 
3.0786768432 3.0932710339 3.1078652246 3.1224594153 3.137053606 3.1516477967 2.9473291268 2.9619233175 2.9765175082 
2.991111699 3.0057058897 3.0203000804 3.0348942711 3.0494884618 3.0640826525 3.0786768432 3.0932710339 3.1078652246 
3.1224594153 3.137053606 3.1516477967 2.9473291268 2.9619233175 2.9765175082 2.991111699 3.0057058897 3.0203000804 
3.0348942711 3.0494884618 3.0640826525 3.0786768432 3.0932710339 3.1078652246 3.1224594153 3.137053606 3.1516477967 
2.9473291268 2.9619233175 2.9765175082 2.991111699 3.0057058897 3.0203000804 3.0348942711 3.0494884618 3.0640826525 
3.0786768432 3.0932710339 3.1078652246 3.1224594153 3.137053606 2.9473291268 2.9619233175 2.9765175082 2.991111699 
3.0057058897 3.0203000804 3.0348942711 3.0494884618 3.0640826525 3.0786768432 3.0932710339 3.1078652246 3.1224594153 
3.137053606 2.9473291268 2.9619233175 2.9765175082 2.991111699 3.0057058897 3.0203000804 3.0348942711 3.0494884618 
3.0640826525 3.0786768432 3.0932710339 3.1078652246 3.1224594153 3.137053606 2.9473291268 2.9619233175 2.9765175082 
2.991111699 3.0057058897 3.0203000804 3.0348942711 3.0494884618 3.0640826525 3.0786768432 3.0932710339 3.1078652246 
3.1224594153 2.9473291268 2.9619233175 2.9765175082 2.991111699 3.0057058897 3.0203000804 3.0348942711 3.0494884618 
3.0640826525 3.0786768432 3.0932710339 3.1078652246 3.1224594153 2.9473291268 2.9619233175 2.9765175082 2.991111699 
3.0057058897 3.0203000804 3.0348942711 3.0494884618 3.0640826525 3.0786768432 3.0932710339 3.1078652246 3.1224594153 
2.9473291268 2.9619233175 2.9765175082 2.991111699 3.0057058897 3.0203000804 3.0348942711 3.0494884618 3.0640826525 
3.0786768432 3.0932710339 3.1078652246 3.1224594153 2.9473291268 2.9619233175 2.9765175082 2.991111699 3.0057058897 
3.0203000804 3.0348942711 3.0494884618 3.0640826525 3.0786768432 3.0932710339 3.1078652246 3.1224594153 2.9473291268 
2.9619233175 2.9765175082 2.991111699 3.0057058897 3.0203000804 3.0348942711 3.0494884618 3.0640826525 3.0786768432 
3.0932710339 3.1078652246 3.1078652246 3.0932710339 3.0786768432 3.0640826525 3.0640826525 3.0640826525 3.0786768432 
3.0786768432 3.0786768432 3.0640826525 3.0494884618 3.0348942711 3.0348942711 3.0348942711 3.0494884618 3.0640826525 
3.0786768432 3.0932710339 2.9473291268 2.9473291268 2.9619233175 2.9619233175 2.9765175082 2.9765175082 2.991111699 
2.991111699 3.0057058897 3.0057058897 3.0203000804 3.0203000804 3.0348942711 3.0348942711 3.0494884618 3.0494884618 
3.0640826525 3.0640826525 3.0786768432 3.0786768432 3.0932710339 3.0932710339 3.1078652246 2.9473291268 2.9619233175 
2.9765175082 2.991111699 3.0057058897 3.0203000804 3.0348942711 3.0494884618 3.0640826525 3.0786768432 3.0932710339 
3.1078652246 3.1224594153 2.9473291268 2.9619233175 2.9765175082 2.991111699 3.0057058897 3.0203000804 3.0348942711 
3.0494884618 3.0640826525 3.0786768432 3.0932710339 3.1078652246 3.1224594153 3.137053606 2.9473291268 2.9619233175 
2.9765175082 2.991111699 3.0057058897 3.0203000804 3.0348942711 3.0494884618 3.0640826525 3.0786768432 3.0932710339 
3.1078652246 2.9473291268 2.9619233175 2.9765175082 2.991111699 3.0057058897 3.0203000804 3.0348942711 3.0494884618 
3.0640826525 3.0786768432 3.0932710339 3.1078652246 2.9473291268 2.9619233175 2.9765175082 2.991111699 3.0057058897 