# vtk DataFile Version 4.2
vtk output
ASCII
DATASET POLYDATA
POINTS 7383 float
1627.26 -2907.13 0 1627.87 -2907.56 0 1630.05 -2907.13 0 
1579.76 -2890.13 0 1590.87 -2894.1 0 1664.87 -2900.94 0 
1701.88 -2895.38 0 1736.94 -2890.12 0 1532.26 -2873.13 0 
1553.87 -2880.86 0 1738.88 -2889.83 0 1775.88 -2884.28 0 
1812.88 -2878.73 0 1849.88 -2873.18 0 1850.27 -2873.12 0 
1484.76 -2856.13 0 1516.87 -2867.62 0 1886.88 -2867.62 0 
1923.88 -2862.07 0 1960.89 -2856.52 0 1963.59 -2856.11 0 
1437.26 -2839.13 0 1442.87 -2841.14 0 1479.87 -2854.38 0 
1997.89 -2850.97 0 2034.89 -2845.42 0 2071.89 -2839.87 0 
2076.92 -2839.11 0 1389.76 -2822.13 0 1405.87 -2827.89 0 
2108.89 -2834.31 0 2145.89 -2828.76 0 2182.89 -2823.21 0 
2185.1 -2822.11 0 1342.26 -2805.13 0 1368.87 -2814.65 0 
2204.71 -2805.11 0 1294.76 -2788.13 0 1294.87 -2788.17 0 
1331.87 -2801.41 0 2213.15 -2788.1 0 1247.26 -2771.13 0 
1257.87 -2774.93 0 2217.85 -2771.1 0 1199.76 -2754.13 0 
1220.87 -2761.68 0 2219.9 -2760.24 0 2220.91 -2754.1 0 
1152.26 -2737.13 0 1183.87 -2748.44 0 2223.71 -2737.1 0 
1105.62 -2720.13 0 1109.87 -2721.96 0 1146.87 -2735.2 0 
2226.51 -2720.1 0 1072.33 -2703.13 0 1072.87 -2703.5 0 
2229.31 -2703.1 0 1047.62 -2686.13 0 2232.12 -2686.1 0 
1022.9 -2669.13 0 1035.87 -2678.05 0 2234.92 -2669.1 0 
998.18 -2652.13 0 998.871 -2652.6 0 2237.72 -2652.1 0 
973.462 -2635.13 0 2240.52 -2635.09 0 957.842 -2618.13 0 
961.871 -2627.16 0 2243.32 -2618.09 0 950.399 -2601.13 0 
2246.12 -2601.09 0 943.141 -2584.13 0 2248.92 -2584.09 0 
936.06 -2567.13 0 2251.73 -2567.09 0 929.15 -2550.13 0 
2254.53 -2550.09 0 922.556 -2533.12 0 924.876 -2539.4 0 
2256.91 -2535.62 0 2257.33 -2533.09 0 916.273 -2516.12 0 
2260.13 -2516.09 0 909.99 -2499.12 0 2262.93 -2499.09 0 
903.706 -2482.12 0 2265.73 -2482.08 0 897.423 -2465.12 0 
2268.54 -2465.08 0 891.139 -2448.12 0 2271.34 -2448.08 0 
884.856 -2431.12 0 887.88 -2439.3 0 2274.14 -2431.08 0 
878.572 -2414.12 0 2276.94 -2414.08 0 872.289 -2397.12 0 
2279.74 -2397.08 0 866.005 -2380.12 0 2282.54 -2380.08 0 
859.722 -2363.12 0 2285.34 -2363.08 0 853.439 -2346.11 0 
2288.15 -2346.08 0 847.155 -2329.11 0 850.885 -2339.21 0 
2290.95 -2329.07 0 840.872 -2312.11 0 2293.75 -2312.07 0 
834.588 -2295.11 0 2293.93 -2311 0 2296.55 -2295.07 0 
828.305 -2278.11 0 2299.35 -2278.07 0 822.021 -2261.11 0 
2302.15 -2261.07 0 815.738 -2244.11 0 2309.44 -2244.07 0 
809.454 -2227.11 0 813.89 -2239.11 0 2321.48 -2227.07 0 
803.171 -2210.11 0 2330.93 -2213.71 0 2333.51 -2210.07 0 
796.888 -2193.11 0 2345.55 -2193.07 0 790.604 -2176.11 0 
2357.58 -2176.06 0 784.321 -2159.11 0 2367.94 -2161.44 0 
2369.62 -2159.06 0 778.037 -2142.1 0 2381.65 -2142.06 0 
775.295 -2125.1 0 776.895 -2135.44 0 2393.69 -2125.06 0 
772.935 -2108.1 0 2404.94 -2109.16 0 2405.72 -2108.06 0 
770.576 -2091.1 0 2417.76 -2091.06 0 768.216 -2074.1 0 
2429.79 -2074.06 0 765.857 -2057.1 0 2441.83 -2057.05 0 
763.497 -2040.1 0 2441.95 -2056.89 0 2453.86 -2040.05 0 
761.138 -2023.1 0 2461.98 -2023.05 0 758.778 -2006.1 0 
2464.64 -2006.05 0 756.419 -1989.1 0 2466.24 -1989.05 0 
754.059 -1972.1 0 2465.55 -1972.05 0 751.7 -1955.09 0 
2464.38 -1955.05 0 749.34 -1938.09 0 2463.2 -1938.05 0 
746.98 -1921.09 0 2462.03 -1921.05 0 744.621 -1904.09 0 
2460.86 -1904.05 0 742.261 -1887.09 0 2459.69 -1887.04 0 
739.902 -1870.09 0 739.91 -1870.15 0 2458.51 -1870.04 0 
737.542 -1853.09 0 2457.34 -1853.04 0 735.183 -1836.09 0 
2456.17 -1836.04 0 732.823 -1819.09 0 2454.99 -1819.04 0 
730.464 -1802.09 0 2453.82 -1802.04 0 728.104 -1785.09 0 
2452.65 -1785.04 0 725.744 -1768.08 0 2451.48 -1768.04 0 
721.837 -1751.08 0 2450.3 -1751.04 0 717.344 -1734.08 0 
2449.13 -1734.04 0 713.941 -1717.08 0 2447.96 -1717.03 0 
708.402 -1700.08 0 2446.78 -1700.03 0 701.748 -1683.08 0 
702.92 -1686.15 0 2445.61 -1683.03 0 695.158 -1666.08 0 
2444.44 -1666.03 0 690.335 -1649.08 0 2443.27 -1649.03 0 
687.079 -1632.08 0 2442.09 -1632.03 0 683.366 -1615.08 0 
2441.97 -1630.24 0 2440.93 -1615.03 0 -481.108 -1611.68 0 
-507.471 -1598.11 0 -444.107 -1613.3 0 -407.105 -1601.28 0 
-397.342 -1598.1 0 679.654 -1598.08 0 2440.48 -1598.03 0 
-518.108 -1592.63 0 -540.498 -1581.11 0 -370.103 -1589.26 0 
-345.001 -1581.1 0 675.941 -1581.07 0 2441.5 -1581.03 0 
-555.108 -1573.59 0 -573.525 -1564.11 0 -333.102 -1577.24 0 
-296.1 -1565.22 0 -292.661 -1564.1 0 672.228 -1564.07 0 
2441.97 -1573.22 0 2442.53 -1564.03 0 -592.107 -1554.54 0 
-606.551 -1547.11 0 -259.098 -1553.2 0 -240.32 -1547.1 0 
668.515 -1547.07 0 2443.55 -1547.03 0 -629.107 -1535.5 0 
-639.578 -1530.11 0 -222.097 -1541.18 0 -187.98 -1530.1 0 
664.802 -1530.07 0 665.928 -1535.23 0 2444.57 -1530.02 0 
-666.107 -1516.45 0 -672.605 -1513.11 0 -185.095 -1529.16 0 
-148.093 -1517.14 0 -135.639 -1513.09 0 661.09 -1513.07 0 
2445.6 -1513.02 0 -703.107 -1497.41 0 -705.632 -1496.11 0 
-111.092 -1505.12 0 -83.5251 -1496.09 0 657.377 -1496.07 0 
2446.62 -1496.02 0 -738.659 -1479.11 0 -74.0898 -1493.02 0 
-60.7622 -1479.09 0 653.664 -1479.07 0 2447.65 -1479.02 0 
-740.107 -1478.05 0 -752.809 -1462.11 0 -38.4004 -1462.09 0 
649.951 -1462.07 0 2448.67 -1462.02 0 -764.733 -1445.11 0 
-37.0869 -1461.17 0 -25.4634 -1445.09 0 646.238 -1445.07 0 
2449.69 -1445.02 0 -776.657 -1428.1 0 -13.1765 -1428.08 0 
642.526 -1428.07 0 2450.72 -1428.02 0 -777.105 -1427.47 0 
-788.581 -1411.1 0 -0.889702 -1411.08 0 638.813 -1411.07 0 
1487.39 -1411.04 0 1516.96 -1412.06 0 1519.47 -1411.04 0 
2451.74 -1411.02 0 -800.505 -1394.1 0 -0.0829343 -1409.97 0 
11.3971 -1394.08 0 635.1 -1394.06 0 1339.18 -1394.05 0 
1368.95 -1405.44 0 1405.96 -1408.24 0 1442.96 -1409.51 0 
1479.96 -1410.79 0 1549.23 -1394.04 0 2452.76 -1394.02 0 
-812.429 -1377.1 0 23.6839 -1377.08 0 631.387 -1377.06 0 
1294.76 -1377.05 0 1294.95 -1377.12 0 1331.95 -1391.28 0 
1553.96 -1390.08 0 1567.54 -1377.04 0 2453.79 -1377.01 0 
-814.103 -1374.72 0 -824.353 -1360.1 0 35.9708 -1360.08 0 
627.674 -1360.06 0 628.937 -1365.84 0 1250.34 -1360.05 0 
1257.95 -1362.96 0 1585.24 -1360.04 0 2454.81 -1360.01 0 
-836.278 -1343.1 0 36.9211 -1358.76 0 48.2576 -1343.08 0 
623.962 -1343.06 0 1214.4 -1343.05 0 1220.95 -1348.8 0 
1590.96 -1354.54 0 1602.94 -1343.04 0 2455.84 -1343.01 0 
-848.202 -1326.1 0 60.5444 -1326.08 0 620.249 -1326.06 0 
1192.12 -1326.05 0 1620.64 -1326.03 0 2456.86 -1326.01 0 
-851.101 -1321.97 0 -860.126 -1309.1 0 72.8313 -1309.07 0 
614.579 -1309.06 0 1170.86 -1309.05 0 1183.95 -1320.65 0 
1627.97 -1319 0 1638.34 -1309.03 0 2457.88 -1309.01 0 
-872.05 -1292.1 0 73.9251 -1307.56 0 85.118 -1292.07 0 
604.772 -1292.06 0 1148.61 -1292.05 0 1656.04 -1292.03 0 
2458.91 -1292.01 0 -883.974 -1275.1 0 97.4048 -1275.07 0 
594.965 -1275.06 0 1122.88 -1275.04 0 1146.96 -1290.9 0 
1664.97 -1283.46 0 1673.75 -1275.03 0 2458.38 -1275.01 0 
-888.099 -1269.22 0 -895.898 -1258.1 0 109.692 -1258.07 0 
586.431 -1258.06 0 591.941 -1269.82 0 1097.05 -1258.04 0 
1109.96 -1266.54 0 1693.1 -1258.03 0 2457.07 -1258.01 0 
-907.822 -1241.1 0 110.929 -1256.36 0 121.979 -1241.07 0 
579.87 -1241.06 0 1071.23 -1241.04 0 1072.96 -1242.18 0 
1701.97 -1252.54 0 1713.44 -1241.03 0 2456.06 -1241.01 0 
-919.746 -1224.1 0 134.265 -1224.07 0 575.858 -1224.06 0 
1045.41 -1224.04 0 1727.25 -1224.03 0 2452.82 -1224.01 0 
-925.097 -1216.47 0 -931.67 -1207.1 0 142.133 -1207.07 0 
571.847 -1207.06 0 1019.58 -1207.04 0 1035.96 -1217.82 0 
1738.51 -1207.02 0 2449.33 -1207 0 -943.594 -1190.1 0 
145.414 -1190.07 0 567.836 -1190.05 0 995.962 -1190.04 0 
998.957 -1193.47 0 1738.98 -1206.3 0 1750.37 -1190.02 0 
2447.19 -1190 0 -955.518 -1173.09 0 147.702 -1173.06 0 
563.824 -1173.05 0 981.037 -1173.04 0 1761.84 -1173.02 0 
2446.51 -1173 0 -962.094 -1163.72 0 -967.442 -1156.09 0 
147.935 -1170.99 0 149.486 -1156.06 0 559.813 -1156.05 0 
966.034 -1156.04 0 1772.88 -1156.02 0 2446.2 -1156 0 
-979.366 -1139.09 0 151.253 -1139.06 0 555.802 -1139.05 0 
953.716 -1139.04 0 961.958 -1151.44 0 1775.98 -1151.14 0 
1784.17 -1139.02 0 2445.89 -1139 0 -992.372 -1122.09 0 
153.02 -1122.06 0 551.764 -1122.05 0 554.948 -1135.43 0 
943.097 -1122.04 0 1795.66 -1122.02 0 2445.62 -1122 0 
-999.093 -1116.19 0 -1011.8 -1105.09 0 154.787 -1105.06 0 
547.722 -1105.05 0 933.274 -1105.04 0 1807.16 -1105.02 0 
2445.42 -1105 0 -1023.85 -1088.09 0 156.554 -1088.06 0 
543.686 -1088.05 0 923.895 -1088.04 0 924.961 -1089.97 0 
1812.98 -1096.39 0 1818.65 -1088.01 0 2445.22 -1088 0 
-1029.27 -1071.09 0 158.37 -1071.06 0 539.654 -1071.05 0 
914.517 -1071.04 0 1830.14 -1071.01 0 2445.02 -1071 0 
-1032.04 -1054.09 0 165.103 -1054.06 0 535.627 -1054.05 0 
901.41 -1054.04 0 1841.63 -1054.01 0 2444.83 -1054 0 
-1034.36 -1037.09 0 171.902 -1037.06 0 531.605 -1037.05 0 
886.44 -1037.04 0 887.963 -1038.77 0 1849.99 -1041.65 0 
1852.39 -1037.01 0 2444.63 -1036.99 0 -1036.09 -1024.45 0 
-1036.76 -1020.09 0 178.701 -1020.06 0 527.588 -1020.05 0 
871.47 -1020.04 0 1858.98 -1020.01 0 2444.44 -1019.99 0 
-1039.23 -1003.09 0 184.946 -1004.44 0 185.5 -1003.05 0 
523.575 -1003.04 0 856.5 -1003.04 0 1865.34 -1003.01 0 
2444.24 -1002.99 0 -1041.5 -986.086 0 192.299 -986.053 0 
519.567 -986.044 0 841.53 -986.035 0 850.964 -996.75 0 
1871.7 -986.007 0 2444.05 -985.992 0 -1043.65 -969.085 0 
199.098 -969.052 0 515.821 -969.043 0 517.956 -978.928 0 
826.56 -969.035 0 1878.07 -969.006 0 2443.87 -968.991 0 
-1045.97 -952.084 0 205.897 -952.05 0 511.003 -952.042 0 
811.678 -952.034 0 813.966 -954.733 0 1885.48 -952.005 0 
2443.58 -951.99 0 -1048.3 -935.083 0 212.696 -935.049 0 
506.175 -935.041 0 798.01 -935.033 0 1887 -948.983 0 
1893.98 -935.004 0 2442.01 -939.374 0 2441.46 -934.989 0 
-1050.62 -918.082 0 216.367 -918.048 0 501.025 -918.04 0 
785.51 -918.033 0 1902.48 -918.003 0 2438.96 -917.988 0 
-1052.94 -901.081 0 216.56 -901.047 0 495.514 -901.04 0 
774.339 -901.032 0 776.968 -905.514 0 1910.98 -901.001 0 
2436.45 -900.987 0 -1055.26 -884.081 0 216.701 -884.046 0 
490.004 -884.039 0 764.369 -884.031 0 1919.48 -884 0 
2433.94 -883.986 0 -1057.59 -867.08 0 216.807 -867.045 0 
484.493 -867.038 0 754.399 -867.031 0 1924 -874.959 0 
[...]
POINT_DATA 7383
SCALARS Pressure double
LOOKUP_TABLE default
3.0932710339 3.0932710339 3.0932710339 3.0932710339 3.0932710339 3.0932710339 3.0932710339 3.0932710339 3.0932710339 
3.0932710339 3.0932710339 3.0932710339 3.0932710339 3.0932710339 3.0932710339 3.0932710339 3.0932710339 3.0932710339 
3.0932710339 3.0932710339 3.0932710339 3.0932710339 3.0932710339 3.0932710339 3.0932710339 3.0932710339 3.0932710339 
3.0932710339 3.0932710339 3.0932710339 3.0932710339 3.0932710339 3.0932710339 3.0932710339 3.0932710339 3.0932710339 
3.0932710339 3.0932710339 3.0932710339 3.0932710339 3.0932710339 3.0932710339 3.0932710339 3.0932710339 3.0932710339 
3.0932710339 3.0932710339 3.0932710339 3.0932710339 3.0932710339 3.0932710339 3.0932710339 3.0932710339 3.0932710339 
3.0932710339 3.0932710339 3.0932710339 3.0932710339 3.0932710339 3.0932710339 3.0932710339 3.0932710339 3.0932710339 
3.0932710339 3.0932710339 3.0932710339 3.0932710339 3.0932710339 3.0932710339 3.0932710339 3.0932710339 3.0932710339 
3.0932710339 3.0932710339 3.0932710339 3.0932710339 3.0932710339 3.0932710339 3.0932710339 3.0932710339 3.0932710339 
3.0932710339 3.0932710339 3.0932710339 3.0932710339 3.0932710339 3.0932710339 3.0932710339 3.0932710339 3.0932710339 
3.0932710339 3.0932710339 3.0932710339 3.0932710339 3.0932710339 3.0932710339 3.0932710339 3.0932710339 3.0932710339 
3.0932710339 3.0932710339 3.0932710339 3.0932710339 3.0932710339 3.0932710339 3.0932710339 3.0932710339 3.0932710339 
3.0932710339 3.0932710339 3.0932710339 3.0932710339 3.0932710339 3.0932710339 3.0932710339 3.0932710339 3.0932710339 
3.0932710339 3.0932710339 3.0932710339 3.0932710339 3.0932710339 3.0932710339 3.0932710339 3.0932710339 3.0932710339 
3.0932710339 3.0932710339 3.0932710339 3.0932710339 3.0932710339 3.0932710339 3.0932710339 3.0932710339 3.0932710339 
3.0932710339 3.0932710339 3.0932710339 3.0932710339 3.0932710339 3.0932710339 3.0932710339 3.0932710339 3.0932710339 
3.0932710339 3.0932710339 3.0932710339 3.0932710339 3.0932710339 3.0932710339 3.0932710339 3.0932710339 3.0932710339 
3.0932710339 3.0932710339 3.0932710339 3.0932710339 3.0932710339 3.0932710339 3.0932710339 3.0932710339 3.0932710339 
3.0932710339 3.0932710339 3.0932710339 3.0932710339 3.0932710339 3.0932710339 3.0932710339 3.0932710339 3.0932710339 
3.0932710339 3.0932710339 3.0932710339 3.0932710339 3.0932710339 3.0932710339 3.0932710339 3.0932710339 3.0932710339 
3.0932710339 3.0932710339 3.0932710339 3.0932710339 3.0932710339 3.0932710339 3.0932710339 3.0932710339 3.0932710339 
3.0932710339 3.0932710339 3.0932710339 3.0932710339 3.0932710339 3.0932710339 3.0932710339 3.0932710339 3.0932710339 
3.0932710339 3.0932710339 3.0932710339 3.0932710339 3.0932710339 3.0786768432 3.0786768432 3.0786768432 3.0786768432 
3.0786768432 3.0932710339 3.0932710339 3.0786768432 3.0786768432 3.0786768432 3.0786768432 3.0932710339 3.0932710339 
3.0786768432 3.0786768432 3.0786768432 3.0786768432 3.0786768432 3.0932710339 3.0932710339 3.0932710339 3.0786768432 
3.0786768432 3.0786768432 3.0786768432 3.0932710339 3.0932710339 3.0786768432 3.0786768432 3.0786768432 3.0786768432 
3.0932710339 3.0932710339 3.0932710339 3.0786768432 3.0786768432 3.0786768432 3.0786768432 3.0786768432 3.0932710339 
3.0932710339 3.0786768432 3.0786768432 3.0786768432 3.0786768432 3.0932710339 3.0932710339 3.0786768432 3.0786768432 
3.0786768432 3.0932710339 3.0932710339 3.0786768432 3.0786768432 3.0786768432 3.0932710339 3.0932710339 3.0786768432 
3.0786768432 3.0786768432 3.0932710339 3.0932710339 3.0786768432 3.0786768432 3.0932710339 3.0932710339 3.0786768432 
3.0786768432 3.0786768432 3.0932710339 3.1078652246 3.1078652246 3.1078652246 3.0932710339 3.0786768432 3.0786768432 
3.0786768432 3.0932710339 3.1078652246 3.1078652246 3.1078652246 3.1078652246 3.1078652246 3.1078652246 3.0932710339 
3.0786768432 3.0786768432 3.0932710339 3.1078652246 3.1078652246 3.1078652246 3.1078652246 3.1078652246 3.0932710339 
3.0786768432 3.0786768432 3.0786768432 3.0932710339 3.0932710339 3.1078652246 3.1078652246 3.1078652246 3.0932710339 
3.0786768432 3.0786768432 3.0786768432 3.0932710339 3.1078652246 3.1078652246 3.1078652246 3.1078652246 3.0932710339 
3.0786768432 3.0786768432 3.0932710339 3.1078652246 3.1078652246 3.0932710339 3.0786768432 3.0786768432 3.0786768432 
3.0932710339 3.1078652246 3.1078652246 3.1078652246 3.1078652246 3.0932710339 3.0786768432 3.0786768432 3.0786768432 
3.0932710339 3.1078652246 3.1078652246 3.0932710339 3.0786768432 3.0786768432 3.0932710339 3.1078652246 3.1078652246 
3.1078652246 3.1078652246 3.0932710339 3.0786768432 3.0786768432 3.0786768432 3.0932710339 3.0932710339 3.1078652246 
3.1078652246 3.1078652246 3.0932710339 3.0786768432 3.0786768432 3.0786768432 3.0932710339 3.1078652246 3.1078652246 
3.1078652246 3.1078652246 3.0932710339 3.0786768432 3.0786768432 3.0932710339 3.1078652246 3.1078652246 3.0932710339 
3.0786768432 3.0786768432 3.0786768432 3.0932710339 3.1078652246 3.1078652246 3.1078652246 3.0932710339 3.0786768432 
3.0786768432 3.0932710339 3.1078652246 3.1078652246 3.1078652246 3.1078652246 3.0932710339 3.0786768432 3.0786768432 
3.0932710339 3.1078652246 3.1078652246 3.0932710339 3.0786768432 3.0786768432 3.0786768432 3.0786768432 3.0932710339 
3.1078652246 3.1078652246 3.0932710339 3.0786768432 3.0786768432 3.0932710339 3.1078652246 3.1078652246 3.1078652246 
3.1078652246 3.0932710339 3.0786768432 3.0786768432 3.0932710339 3.0932710339 3.1078652246 3.1078652246 3.0932710339 
3.0786768432 3.0786768432 3.0786768432 3.0932710339 3.1078652246 3.1078652246 3.0932710339 3.0786768432 3.0786768432 
3.0932710339 3.1078652246 3.1078652246 3.1078652246 3.1078652246 3.0932710339 3.0786768432 3.0786768432 3.0932710339 
3.1078652246 3.1078652246 3.0932710339 3.0786768432 3.0786768432 3.0932710339 3.1078652246 3.1078652246 3.0932710339 
3.0786768432 3.0786768432 3.0932710339 3.1078652246 3.1078652246 3.1078652246 3.1078652246 3.0932710339 3.0786768432 
3.0786768432 3.0786768432 3.0932710339 3.1078652246 3.1078652246 3.0932710339 3.0786768432 3.0786768432 3.0786768432 
3.0932710339 3.1078652246 3.1078652246 3.0932710339 3.0786768432 3.0786768432 3.0932710339 3.1078652246 3.1078652246 
3.1078652246 3.0932710339 3.0786768432 3.0786768432 3.0932710339 3.0932710339 3.1078652246 3.1078652246 3.0932710339 
3.0786768432 3.0786768432 3.0932710339 3.1078652246 3.1078652246 3.1078652246 3.0932710339 3.0786768432 3.0786768432 
3.0932710339 3.1078652246 3.1078652246 3.1078652246 3.0932710339 3.0932710339 3.0786768432 3.0786768432 3.0932710339 
3.1078652246 3.1078652246 3.0932710339 3.0786768432 3.0786768432 3.0932710339 3.1078652246 3.1078652246 3.1078652246 
3.0932710339 3.0786768432 3.0786768432 3.0932710339 3.1078652246 3.1078652246 3.0932710339 3.0786768432 3.0786768432 
3.0932710339 3.1078652246 3.1078652246 3.1078652246 3.0932710339 3.0786768432 3.0786768432 3.0932710339 3.0932710339 
3.1078652246 3.1078652246 3.0932710339 3.0786768432 3.0786768432 3.0932710339 3.1078652246 3.1078652246 3.1078652246 
3.0932710339 3.0786768432 3.0786768432 3.0932710339 3.1078652246 3.1078652246 3.0932710339 3.0786768432 3.0786768432 
3.0786768432 3.0786768432 3.0786768432 3.0932710339 3.1078652246 3.1078652246 3.0932710339 3.0786768432 3.0786768432 
3.0786768432 3.0786768432 3.0786768432 3.0786768432 3.0786768432 3.0932710339 3.1078652246 3.1078652246 3.1224594153 
3.1224594153 3.1224594153 3.1224594153 3.1224594153 3.1224594153 3.1078652246 3.0932710339 3.0786768432 3.0786768432 
3.0786768432 3.0786768432 3.0786768432 3.0786768432 3.0932710339 3.1078652246 3.1224594153 3.1224594153 3.1224594153 
3.1224594153 3.1224594153 3.1224594153 3.1224594153 3.1078652246 3.1078652246 3.0932710339 3.0786768432 3.0786768432 
3.0786768432 3.0786768432 3.0786768432 3.0786768432 3.0786768432 3.0640826525 3.0640826525 3.0640826525 3.0786768432 
3.0932710339 3.1078652246 3.1224594153 3.1224594153 3.1224594153 3.1078652246 3.0932710339 3.0786768432 3.0786768432 
3.0786768432 3.0786768432 3.0786768432 3.0786768432 3.0640826525 3.0640826525 3.0640826525 3.0640826525 3.0640826525 
3.0640826525 3.0640826525 3.0640826525 3.0786768432 3.0932710339 3.1078652246 3.1224594153 3.1224594153 3.1224594153 
3.1078652246 3.0932710339 3.0786768432 3.0786768432 3.0786768432 3.0786768432 3.0640826525 3.0640826525 3.0640826525 
3.0786768432 3.0932710339 3.1078652246 3.1078652246 3.1224594153 3.1224594153 3.1224594153 3.1078652246 3.0932710339 
3.0786768432 3.0786768432 3.0786768432 3.0786768432 3.0640826525 3.0640826525 3.0786768432 3.0932710339 3.0932710339 
3.1078652246 3.1224594153 3.1224594153 3.1224594153 3.1224594153 3.1078652246 3.0932710339 3.0786768432 3.0786768432 
3.0786768432 3.0786768432 3.0640826525 3.0640826525 3.0640826525 3.0640826525 3.0786768432 3.0932710339 3.1078652246 
3.1224594153 3.1224594153 3.1224594153 3.1078652246 3.0932710339 3.0786768432 3.0786768432 3.0786768432 3.0786768432 
3.0640826525 3.0640826525 3.0786768432 3.0932710339 3.1078652246 3.1224594153 3.1224594153 3.1224594153 3.1078652246 
3.1078652246 3.0932710339 3.0786768432 3.0786768432 3.0786768432 3.0786768432 3.0786768432 3.0640826525 3.0640826525 
3.0640826525 3.0640826525 3.0786768432 3.0932710339 3.1078652246 3.1078652246 3.1224594153 3.1224594153 3.1224594153 
3.1078652246 3.0932710339 3.0786768432 3.0786768432 3.0786768432 3.0786768432 3.0640826525 3.0640826525 3.0786768432 
3.0932710339 3.1078652246 3.1224594153 3.1224594153 3.1224594153 3.1078652246 3.0932710339 3.0786768432 3.0786768432 
3.0786768432 3.0640826525 3.0640826525 3.0640826525 3.0640826525 3.0786768432 3.0932710339 3.1078652246 3.1224594153 
3.1224594153 3.1224594153 3.1078652246 3.0932710339 3.0786768432 3.0786768432 3.0786768432 3.0786768432 3.0640826525 
3.0640826525 3.0786768432 3.0932710339 3.1078652246 3.1224594153 3.1224594153 3.1224594153 3.1078652246 3.0932710339 
3.0786768432 3.0786768432 3.0786768432 3.0786768432 3.0640826525 3.0640826525 3.0640826525 3.0640826525 3.0786768432 
3.0932710339 3.1078652246 3.1224594153 3.1224594153 3.1224594153 3.1078652246 3.0932710339 3.0786768432 3.0786768432 
3.0786768432 3.0640826525 3.0640826525 3.0786768432 3.0932710339 3.0932710339 3.1078652246 3.1078652246 3.1224594153 
3.1224594153 3.1078652246 3.0932710339 3.0786768432 3.0786768432 3.0786768432 3.0640826525 3.0640826525 3.0786768432 
3.0932710339 3.1078652246 3.1224594153 3.1224594153 3.1078652246 3.0932710339 3.0786768432 3.0786768432 3.0786768432 
3.0786768432 3.0640826525 3.0640826525 3.0786768432 3.0932710339 3.1078652246 3.1224594153 3.1224594153 3.1224594153 
3.1224594153 3.1078652246 3.1078652246 3.0932710339 3.0786768432 3.0786768432 3.0786768432 3.0786768432 3.0640826525 
3.0640826525 3.0786768432 3.0932710339 3.1078652246 3.1078652246 3.1224594153 3.1224594153 3.1078652246 3.0932710339 
3.0786768432 3.0786768432 3.0786768432 3.0640826525 3.0640826525 3.0640826525 3.0786768432 3.0932710339 3.1078652246 
3.1224594153 3.1224594153 3.1224594153 3.1078652246 3.0932710339 3.0786768432 3.0786768432 3.0786768432 3.0786768432 
3.0640826525 3.0640826525 3.0640826525 3.0786768432 3.0932710339 3.1078652246 3.1224594153 3.1224594153 3.1224594153 
3.1078652246 3.0932710339 3.0786768432 3.0786768432 3.0786768432 3.0786768432 3.0640826525 3.0640826525 3.0786768432 
3.0932710339 3.1078652246 3.1078652246 3.1224594153 3.1224594153 3.1224594153 3.1078652246 3.0932710339 3.0786768432 
3.0786768432 3.0786768432 3.0640826525 3.0640826525 3.0786768432 3.0932710339 3.1078652246 3.1224594153 3.1224594153 
3.1078652246 3.0932710339 3.0786768432 3.0786768432 3.0786768432 3.0640826525 3.0494884618 3.0494884618 3.0494884618 
3.0494884618 3.0494884618 3.0640826525 3.0786768432 3.0932710339 3.0932710339 3.1078652246 3.1224594153 3.1224594153 
3.137053606 3.137053606 3.137053606 3.137053606 3.1224594153 3.1078652246 3.0932710339 3.0786768432 3.0786768432 
3.0786768432 3.0640826525 3.0640826525 3.0494884618 3.0494884618 3.0494884618 3.0494884618 3.0640826525 3.0786768432 
3.0932710339 3.1078652246 3.1224594153 3.137053606 3.137053606 3.137053606 3.1224594153 3.1078652246 3.0932710339 
3.0786768432 3.0786768432 3.0786768432 3.0786768432 3.0640826525 3.0494884618 3.0494884618 3.0494884618 3.0640826525 
3.0786768432 3.0932710339 3.1078652246 3.1078652246 3.1224594153 3.137053606 3.137053606 3.137053606 3.137053606 
3.1224594153 3.1078652246 3.0932710339 3.0786768432 3.0786768432 3.0786768432 3.0786768432 3.0640826525 3.0494884618 
3.0494884618 3.0494884618 3.0640826525 3.0786768432 3.0932710339 3.1078652246 3.1224594153 3.1224594153 3.137053606 
3.137053606 3.137053606 3.1224594153 3.1078652246 3.0932710339 3.0786768432 3.0786768432 3.0786768432 3.0640826525 
3.0494884618 3.0494884618 3.0494884618 3.0640826525 3.0786768432 3.0932710339 3.0932710339 3.1078652246 3.1224594153 
3.137053606 3.137053606 3.137053606 3.137053606 3.1224594153 3.1078652246 3.0932710339 3.0786768432 3.0786768432 
3.0786768432 3.0640826525 3.0494884618 3.0494884618 3.0494884618 3.0640826525 3.0786768432 3.0932710339 3.1078652246 
3.1078652246 3.1224594153 3.137053606 3.137053606 3.1224594153 3.1078652246 3.0932710339 3.0932710339 3.0786768432 
3.0786768432 3.0786768432 3.0786768432 3.0640826525 3.0494884618 3.0494884618 3.0494884618 3.0640826525 3.0786768432 
3.0932710339 3.1078652246 3.1224594153 3.137053606 3.137053606 3.1224594153 3.1224594153 3.1078652246 3.0932710339 
3.0786768432 3.0786768432 3.0786768432 3.0786768432 3.0640826525 3.0494884618 3.0494884618 3.0640826525 3.0786768432 
3.0932710339 3.1078652246 3.1224594153 3.1224594153 3.137053606 3.137053606 3.1224594153 3.1078652246 3.0932710339 
3.0786768432 3.0786768432 3.0786768432 3.0786768432 3.0640826525 3.0494884618 3.0494884618 3.0640826525 3.0786768432 
3.0932710339 3.1078652246 3.1224594153 3.137053606 3.137053606 3.1224594153 3.1078652246 3.0932710339 3.0786768432 
3.0786768432 3.0786768432 3.0786768432 3.0786768432 3.0640826525 3.0640826525 3.0494884618 3.0494884618 3.0494884618 
3.0640826525 3.0786768432 3.0786768432 3.0932710339 3.1078652246 3.1078652246 3.1224594153 3.137053606 3.137053606 
3.137053606 3.1224594153 3.1078652246 3.0932710339 3.0786768432 3.0786768432 3.0786768432 3.0786768432 3.0640826525 
3.0494884618 3.0348942711 3.0348942711 3.0348942711 3.0348942711 3.0494884618 3.0640826525 3.0786768432 3.0932710339 
3.0932710339 3.1078652246 3.1224594153 3.137053606 3.137053606 3.137053606 3.1224594153 3.1224594153 3.1078652246 
3.0932710339 3.0786768432 3.0640826525 3.0640826525 3.0640826525 3.0640826525 3.0640826525 3.0786768432 3.0786768432 
3.0786768432 3.0786768432 3.0786768432 3.0640826525 3.0494884618 3.0348942711 3.0348942711 3.0348942711 3.0348942711 
3.0494884618 3.0494884618 3.0640826525 3.0786768432 3.0932710339 3.1078652246 3.1224594153 3.1224594153 3.137053606 
3.137053606 3.137053606 3.1224594153 3.1078652246 3.0932710339 3.0786768432 3.0640826525 3.0640826525 3.0640826525 
3.0640826525 3.0786768432 3.0786768432 3.0786768432 3.0786768432 3.0786768432 3.0640826525 3.0494884618 3.0348942711 
3.0348942711 3.0348942711 3.0494884618 3.0640826525 3.0786768432 3.0932710339 3.1078652246 3.1224594153 3.137053606 
3.137053606 3.1224594153 3.1078652246 3.0932710339 3.0786768432 3.0786768432 3.0640826525 3.0640826525 3.0640826525 
3.0786768432 3.0786768432 3.0786768432 3.0640826525 3.0494884618 3.0348942711 3.0348942711 3.0348942711 3.0494884618 
3.0640826525 3.0786768432 3.0932710339 3.1078652246 3.1224594153 3.137053606 3.137053606 3.1224594153 3.1078652246 
3.0932710339 3.0786768432 3.0640826525 3.0640826525 3.0640826525 3.0640826525 3.0786768432 3.0786768432 3.0786768432 
3.0640826525 3.0494884618 3.0348942711 3.0348942711 3.0494884618 3.0640826525 3.0786768432 3.0932710339 3.1078652246 
3.1078652246 3.1224594153 3.137053606 3.137053606 3.137053606 3.1224594153 3.1078652246 3.0932710339 3.0786768432 
3.0640826525 3.0640826525 3.0786768432 3.0786768432 3.0786768432 3.0640826525 3.0494884618 3.0494884618 3.0348942711 
3.0348942711 3.0203000804 3.0203000804 3.0203000804 3.0348942711 3.0348942711 3.0494884618 3.0640826525 3.0786768432 
3.0786768432 3.0932710339 3.1078652246 3.1224594153 2.9473291268 2.9473291268 2.9619233175 2.9619233175 2.9765175082 
2.9765175082 2.991111699 2.991111699 3.0057058897 3.0057058897 3.0203000804 3.0203000804 3.0348942711 3.0348942711 
3.0494884618 3.0494884618 3.0640826525 3.0640826525 3.0786768432 3.0786768432 3.0932710339 3.0932710339 3.1078652246 
3.1078652246 3.1224594153 3.1224594153 2.9473291268 2.9619233175 2.9765175082 2.991111699 3.0057058897 3.0203000804 
3.0348942711 3.0494884618 3.0640826525 3.0786768432 3.0932710339 3.1078652246 3.1224594153 3.137053606 2.9473291268 
2.9619233175 2.9765175082 2.991111699 3.0057058897 3.0203000804 3.0348942711 3.0494884618 3.0640826525 3.0786768432 
3.0932710339 3.1078652246 3.1224594153 3.137053606 2.9473291268 2.9619233175 2.9765175082 2.991111699 3.0057058897 
3.0203000804 3.0348942711 3.0494884618 3.0640826525 3.0786768432 3.0932710339 3.1078652246 3.1224594153 3.137053606 
2.9473291268 2.9619233175 2.9765175082 2.991111699 3.0057058897 3.0203000804 3.0348942711 3.0494884618 3.0640826525 
3.0786768432 3.0932710339 3.1078652246 3.1224594153 3.137053606 2.9473291268 2.9619233175 2.9765175082 2.991111699 
3.0057058897 3.0203000804 3.0348942711 3.0494884618 3.0640826525 3.0786768432 3.0932710339 3.1078652246 3.1224594153 
3.137053606 2.9473291268 2.9619233175 2.9765175082 2.991111699 3.0057058897 3.0203000804 3.0348942711 3.0494884618 
3.0640826525 3.0786768432 3.0932710339 3.1078652246 3.1224594153 3.137053606 2.9473291268 2.9619233175 2.9765175082 
2.991111699 3.0057058897 3.0203000804 3.0348942711 3.0494884618 3.0640826525 3.0786768432 3.0932710339 3.1078652246 
3.1224594153 3.137053606 2.9473291268 2.9619233175 2.9765175082 2.991111699 3.0057058897 3.0203000804 3.0348942711 
3.0494884618 3.0640826525 3.0786768432 3.0932710339 3.1078652246 3.1224594153 3.137053606 2.9473291268 2.9619233175 
2.9765175082 2.991111699 3.0057058897 3.0203000804 3.0348942711 3.0494884618 3.0640826525 3.0786768432 3.0932710339 
3.1078652246 3.1224594153 3.137053606 3.137053606 3.1224594153 3.1078652246 3.1078652246 3.0932710339 3.0786768432 
3.0640826525 3.0640826525 3.0786768432 3.0786768432 3.0640826525 3.0494884618 3.0348942711 3.0203000804 3.0203000804 
3.0203000804 3.0203000804 3.0348942711 3.0494884618 3.0640826525 3.0786768432 3.0932710339 3.1078652246 2.9473291268 
2.9473291268 2.9619233175 2.9619233175 2.9765175082 2.9765175082 2.991111699 2.991111699 3.0057058897 3.0057058897 
3.0203000804 3.0203000804 3.0348942711 3.0348942711 3.0494884618 3.0494884618 3.0640826525 3.0640826525 3.0786768432 
3.0786768432 3.0932710339 3.0932710339 3.1078652246 3.1078652246 2.9473291268 2.9619233175 2.9765175082 2.991111699 
3.0057058897 3.0203000804 3.0348942711 3.0494884618 3.0640826525 3.0786768432 3.0932710339 3.1078652246 2.9473291268 
2.9619233175 2.9765175082 2.991111699 3.0057058897 3.0203000804 3.0348942711 3.0494884618 3.0640826525 3.0786768432 
3.0932710339 3.1078652246 2.9473291268 2.9619233175 2.9765175082 2.991111699 3.0057058897 3.0203000804 3.0348942711 
3.0494884618 3.0640826525 3.0786768432 3.0932710339 3.1078652246 3.1224594153 2.9473291268 2.9619233175 2.9765175082 
2.991111699 3.0057058897 3.0203000804 3.0348942711 3.0494884618 3.0640826525 3.0786768432 3.0932710339 3.1078652246 
3.1224594153 2.9473291268 2.9619233175 2.9765175082 2.991111699 3.0057058897 3.0203000804 3.0348942711 3.0494884618 
3.0640826525 3.0786768432 3.0932710339 3.1078652246 3.1224594153 2.9473291268 2.9619233175 2.9765175082 2.991111699 
3.0057058897 3.0203000804 3.0348942711 3.0494884618 3.0640826525 3.0786768432 3.0932710339 3.1078652246 3.1224594153 
2.9473291268 2.9619233175 2.9765175082 2.991111699 3.0057058897 3.0203000804 3.0348942711 3.0494884618 3.0640826525 
3.0786768432 3.0932710339 3.1078652246 3.1224594153 2.9473291268 2.9619233175 2.9765175082 2.991111699 3.0057058897 