# vtk DataFile Version 4.2
vtk output
ASCII
DATASET UNSTRUCTURED_GRID
POINTS 1740 double
2144.07 -94.44003 0 2911 0 0 16.54298 -37.82236 0 
5.09149 -21.30132 0 1.27433 -10.75385 0 0 0 0 
2.54575 15.14293 0 6.36291 23.76126 0 14.00014 34.89063 0 
30.50239 50.70793 0 33.39435 -52.93479 0 2050.91 -103.7862 0 
60.1465 -69.72165 0 88.83633 -83.2817 0 118.7656 -94.71113 0 
153.4168 -105.7022 0 199.5806 -117.771 0 261.4466 -130.7139 0 
345.846 -144.1892 0 460.3522 -157.0592 0 608.4185 -167.1903 0 
783.2313 -172.4016 0 941.0559 -172.4533 0 1063.409 -170.1096 0 
1164.153 -166.8746 0 1263.449 -162.682 0 1375.468 -156.8941 0 
1513.293 -148.414 0 1665.281 -137.5317 0 1791.864 -127.3721 0 
2195.451 -89.09491 0 2273.924 -80.67077 0 2383.731 -68.3513 0 
2517.64 -52.47337 0 2649.227 -35.9232 0 2740.773 -23.82991 0 
2804.387 -15.13419 0 2848.802 -8.916218 0 2881.944 -4.196067 0 
56.61447 67.79801 0 84.09687 81.25172 0 112.4783 92.48395 0 
142.1748 102.3504 0 174.8563 111.6168 0 213.124 120.8806 0 
260.3759 130.5151 0 324.6539 141.1779 0 418.1422 152.9178 0 
535.6656 162.9871 0 690.9154 170.4255 0 902.6513 172.7852 0 
1100.32 169.0517 0 1270.99 162.3262 0 1462.794 151.6837 0 
1631.287 140.0952 0 1747.993 131 0 1922.788 115.9027 0 
2069.56 101.951 0 2128.804 96.0021 0 2297.147 78.11721 0 
2414.379 64.80104 0 2554.023 47.99319 0 2673.693 32.73885 0 
2757.97 21.50315 0 2814.297 13.7575 0 2852.02 8.460961 0 
2882.272 4.148909 0 1791.052 127.4402 0 1366.894 157.3738 0 
1444.38 -152.8302 0 1547.039 146.1296 0 1589.287 -143.1614 0 
1878.731 119.8675 0 1997.072 108.9828 0 1185.654 166.0472 0 
1882.536 -119.5292 0 1971.323 -111.4145 0 1684.777 136.0292 0 
2099.317 -98.9855 0 2234.809 84.9091 0 2181.695 90.53914 0 
1728.573 -132.5703 0 1718.815 133.3509 0 1834.825 123.7132 0 
1960.305 112.4444 0 2033.69 105.4648 0 2099.184 98.99892 0 
2214.291 -66.988630121 396.8421 2955.512 19.664009186 396.8421 158.0786 -16.313202348 396.8421 
147.0109 -0.44196972691 396.8421 143.3217 9.7186740897 396.8421 142.09 20.099340378 396.8421 
144.5505 34.75203587 396.8421 148.2398 43.110491469 396.8421 155.621 53.92594262 396.8421 
171.5701 69.341292514 396.8421 174.3652 -30.781127481 396.8421 2124.254 -75.668887539 396.8421 
200.2206 -46.791321093 396.8421 227.9488 -59.6729783 396.8421 256.8748 -70.491575123 396.8421 
290.3647 -80.85772655 396.8421 334.981 -92.191813293 396.8421 394.7733 -104.27893423 396.8421 
476.3434 -116.76425392 396.8421 587.0114 -128.54098525 396.8421 730.1145 -137.59230951 396.8421 
899.0676 -141.92104997 396.8421 1051.602 -141.48470571 396.8421 1169.853 -138.94145177 396.8421 
1267.221 -135.65014214 396.8421 1363.188 -131.49216411 396.8421 1471.452 -125.84536038 396.8421 
1604.657 -117.6809099 396.8421 1751.55 -107.32005019 396.8421 1873.891 -97.728264219 396.8421 
2263.949 -62.036875589 396.8421 2339.792 -54.249117975 396.8421 2445.918 -42.892188957 396.8421 
2575.338 -28.301612978 396.8421 2702.515 -13.138259136 396.8421 2790.992 -2.0813263103 396.8421 
2852.473 5.859471005 396.8421 2895.4 11.533334171 396.8421 2927.431 15.83834968 396.8421 
196.807 86.059787192 396.8421 223.3682 99.27079188 396.8421 250.7983 110.33738762 396.8421 
279.4994 120.08887303 396.8421 311.0855 129.27636694 396.8421 348.0705 138.49308721 396.8421 
393.7383 148.11833419 396.8421 455.8617 158.82959874 396.8421 546.2162 170.72336436 396.8421 
659.8003 181.07134524 396.8421 809.846 188.95267627 396.8421 1014.485 191.95537538 396.8421 
1205.528 188.79261739 396.8421 1370.477 182.50191982 396.8421 1555.851 172.25961137 396.8421 
1718.696 160.931703 396.8421 1831.49 151.96293857 396.8421 2000.426 136.96778621 396.8421 
2142.278 123.01911654 396.8421 2199.537 117.04996486 396.8421 2362.236 99.040109543 396.8421 
2475.539 85.578766037 396.8421 2610.501 68.53727141 396.8421 2726.16 53.031847922 396.8421 
2807.613 41.592201199 396.8421 2862.05 33.698154164 396.8421 2898.509 28.296931926 396.8421 
2927.749 23.897910985 396.8421 1873.106 148.43814208 396.8421 1463.165 177.76249166 396.8421 
1538.054 -121.92019204 396.8421 1637.272 166.84701828 396.8421 1678.104 -112.66678752 396.8421 
1957.846 140.9168737 396.8421 2072.22 130.05899296 396.8421 1288 186.0137025 396.8421 
1961.524 -90.364747352 396.8421 2047.334 -82.777000523 396.8421 1770.393 156.92938117 396.8421 
2171.038 -71.206629482 396.8421 2301.989 105.88983832 396.8421 2250.655 111.55845644 396.8421 
1812.721 -102.62760709 396.8421 1803.29 154.28647459 396.8421 1915.411 144.74008897 396.8421 
2036.686 133.5174268 396.8421 2107.61 126.53921847 396.8421 2170.909 120.05848845 396.8421 
2284.511 -43.738160202 793.6842 3000.027 37.04531853 793.6842 299.6143 0.83752609095 793.6842 
288.9304 16.076746119 793.6842 285.3691 25.854836722 793.6842 284.1801 35.861281421 793.6842 
286.5551 50.013279876 793.6842 290.1167 58.101045311 793.6842 297.2417 68.58304628 793.6842 
312.6379 83.557598739 793.6842 315.336 -13.014639409 793.6842 2197.597 -51.924728046 793.6842 
340.2947 -28.295018283 793.6842 367.0612 -40.548315569 793.6842 394.9839 -50.807259783 793.6842 
427.3123 -60.606046038 793.6842 470.3812 -71.279075476 793.6842 528.0998 -82.603103032 793.6842 
606.8411 -94.213374735 793.6842 713.6708 -105.03119091 793.6842 851.8104 -113.1389987 793.6842 
1014.904 -116.69224973 793.6842 1162.147 -115.81524988 793.6842 1276.298 -113.07723697 793.6842 
1370.288 -109.71296545 793.6842 1462.927 -105.55509663 793.6842 1567.436 -99.989585947 793.6842 
1696.021 -92.036487459 793.6842 1837.82 -82.043988788 793.6842 1955.917 -72.862536482 793.6842 
2332.447 -39.078925018 793.6842 2405.659 -31.765543116 793.6842 2508.105 -21.128580102 793.6842 
2633.037 -7.5048644072 793.6842 2755.801 6.6125014402 793.6842 2841.209 16.884922938 793.6842 
2900.561 24.252744878 793.6842 2941.997 29.512980363 793.6842 2972.917 33.501969894 793.6842 
336.9995 99.846845999 793.6842 362.6396 112.75765217 793.6842 389.1182 123.60178191 793.6842 
416.8239 133.18143416 793.6842 447.3145 142.23011577 793.6842 483.0167 151.33300844 793.6842 
527.1009 160.87141405 793.6842 587.0697 171.53407317 793.6842 674.2905 183.45750018 793.6842 
783.9349 193.95557461 793.6842 928.7766 202.15517898 793.6842 1126.317 205.71159605 793.6842 
1310.735 203.1170008 793.6842 1469.963 197.31921857 793.6842 1648.908 187.60670672 793.6842 
1806.105 176.70806934 793.6842 1914.987 168.01129673 793.6842 2078.064 153.37949164 793.6842 
2214.996 139.69200833 793.6842 2270.269 133.81653072 793.6842 2427.326 116.03541142 793.6842 
2536.699 102.70079597 793.6842 2666.98 85.776239044 793.6842 2778.628 70.342638511 793.6842 
2857.255 58.93857189 793.6842 2909.806 51.061687296 793.6842 2945.001 45.669123751 793.6842 
2973.224 41.275473925 793.6842 1955.16 164.58100438 793.6842 1559.437 192.84917794 793.6842 
1631.729 -96.155106787 793.6842 1727.505 182.41370401 793.6842 1766.921 -87.189259469 793.6842 
2036.96 157.24214587 793.6842 2147.368 146.6079758 793.6842 1390.347 200.58585312 793.6842 
2040.511 -65.849045262 793.6842 2123.346 -58.64867781 793.6842 1856.009 172.83318399 793.6842 
2242.759 -47.713081462 793.6842 2369.167 122.80688931 793.6842 2319.614 128.40282962 793.6842 
1896.869 -77.545233695 793.6842 1887.765 170.26896698 793.6842 1995.998 160.97578149 793.6842 
2113.066 149.9998259 793.6842 2181.531 143.15206721 793.6842 2242.634 136.77906778 793.6842 
2354.732 -24.617851061 1190.526 3044.539 51.757166653 1190.526 441.15 14.101039819 1190.526 
430.8497 28.724573576 1190.526 427.4164 38.124342506 1190.526 426.2701 47.756183533 1190.526 
428.5601 61.399085849 1190.526 431.9934 69.207098088 1190.526 438.8627 79.339165426 1190.526 
453.7057 93.839621664 1190.526 456.3069 0.83862653979 1190.526 2270.94 -32.435417065 1190.526 
480.3688 -13.753955977 1190.526 506.1737 -25.423733017 1190.526 533.0934 -35.169029332 1190.526 
564.26 -44.4524227 1190.526 605.7815 -54.531173498 1190.526 661.4265 -65.176822531 1190.526 
737.3385 -76.018862755 1190.526 840.33 -86.005451362 1190.526 973.5064 -93.305691817 1190.526 
1130.74 -96.201615773 1190.526 1272.693 -94.950989198 1190.526 1382.742 -92.044772842 1190.526 
1473.356 -88.612904315 1190.526 1562.666 -84.445793775 1190.526 1663.42 -78.933613064 1190.526 
1787.385 -71.132993124 1190.526 1924.09 -61.412421169 1190.526 2037.944 -52.536246388 1190.526 
2400.946 -20.177315573 1190.526 2471.527 -13.218837978 1190.526 2570.292 -3.1208562815 1190.526 
2690.735 9.7781304867 1190.526 2809.091 23.109965912 1190.526 2891.43 32.792224125 1190.526 
2948.647 39.728414451 1190.526 2988.597 44.67660252 1190.526 3018.403 48.427073416 1190.526 
477.1918 109.64984378 1190.526 501.9109 122.21037572 1190.526 527.4382 132.78230994 1190.526 
554.1485 142.13991933 1190.526 583.5435 150.99656548 1190.526 617.963 159.92614174 1190.526 
660.4633 169.30788391 1190.526 718.2775 179.83342669 1190.526 802.3645 191.67081968 1190.526 
908.0698 202.19464106 1190.526 1047.707 210.5834884 1190.526 1238.151 214.58101901 1190.526 
1415.942 212.5135764 1190.526 1569.449 207.22179998 1190.526 1741.965 198.10650843 1190.526 
1893.514 187.74114404 1190.526 1998.484 179.41252895 1190.526 2155.702 165.32436838 1190.526 
2287.714 152.08243811 1190.526 2341.001 146.38348109 1190.526 2492.415 129.09253171 1190.526 
2597.858 116.08917993 1190.526 2723.46 99.548715162 1190.526 2831.095 84.436052463 1190.526 
2906.899 73.25396681 1190.526 2957.56 65.523924197 1190.526 2991.49 60.22906844 1190.526 
3018.699 55.913456419 1190.526 2037.214 176.1172437 1190.526 1655.708 203.04803866 1190.526 
1725.403 -75.163741851 1190.526 1817.738 193.17990943 1190.526 1855.738 -66.408534297 1190.526 
2116.075 169.05118234 1190.526 2222.516 158.77973197 1190.526 1492.694 210.23123068 1190.526 
2119.498 -45.783723101 1190.526 2199.357 -38.872427128 1190.526 1941.625 184.03524153 1190.526 
2314.479 -28.411058535 1190.526 2436.346 135.68450546 1190.526 2388.573 141.12565374 1190.526 
1981.017 -57.057479204 1190.526 1972.24 181.57835836 1190.526 2076.584 172.64852392 1190.526 
[...]
POINT_DATA 1740
FIELD FieldData 1
Pressure 1 1740 double
3.1030314231 3.0198473175 3.0092709192 2.9863326435 2.9755452437 2.9522258259 2.9681804647 2.9861920471 3.0181719571 
3.0310226833 3.0118066974 3.1066180236 3.0362390638 3.0504625483 3.0670060363 3.0655791758 3.0824112302 3.0872776833 
3.1079078313 3.1121172339 3.1299024107 3.1379131284 3.1392776932 3.1431789148 3.1382063222 3.1339941438 3.1308786914 
3.1272259755 3.1215037919 3.1166480623 3.1002945258 3.0973490699 3.0916134432 3.0841559794 3.0732179836 3.0637487535 
3.0531829203 3.0454294602 3.0343095778 3.0670690188 3.0799846221 3.0923508982 3.1050039981 3.1104991827 3.118756228 
3.1261107591 3.1345089603 3.1509001586 3.1647714012 3.1810989153 3.1932473945 3.2005616107 3.2075469023 3.2137397084 
3.2179874542 3.2208093149 3.222364956 3.2223079398 3.1597005022 3.0915596773 3.0867930295 3.0772273725 3.0673305298 
3.0575847068 3.0471696653 3.0403199642 3.0380510769 3.2211330065 3.2109708279 3.1297274569 3.2148356385 3.1245184708 
3.2219483477 3.223067332 3.2070413882 3.1128884329 3.1095537464 3.218419173 3.1049281573 3.0956134024 3.0952788216 
3.1191427876 3.219953516 3.2222299329 3.2234883992 3.2229021709 3.2301217217 3.0996166726 3.0247499295 3.0261064269 
2.9989650308 3.0062951669 2.9841090302 2.9946714818 3.0076627169 3.0344883287 3.0524571977 3.0365765646 3.1036847311 
3.0562840846 3.0689508456 3.0824249839 3.0859059831 3.1013249046 3.1099325432 3.1230455026 3.1279772164 3.1371789375 
3.1408453609 3.1420223067 3.1418815777 3.1375458717 3.1329770237 3.1281112475 3.1237514206 3.1186686761 3.1138083706 
3.0972304664 3.0936056699 3.087892923 3.080642697 3.0696400477 3.0602589477 3.0502167116 3.0433013661 3.024878309 
3.0851760729 3.1055226458 3.1169480151 3.1257633879 3.1346160836 3.1396753379 3.1452730228 3.1553569876 3.168171547 
3.1787772483 3.1881826948 3.1968123238 3.2036717835 3.2106593516 3.2143921637 3.2180614211 3.2204793989 3.223715169 
3.2303138325 3.0925368466 3.0956840643 3.0886214141 3.0797881468 3.0696193986 3.0598247559 3.0489153258 3.0424870223 
3.0441705887 3.2213604657 3.2131003247 3.1269136461 3.2165175626 3.1211020168 3.2228633193 3.2244138642 3.2087399595 
3.1099015003 3.1064718398 3.2190348924 3.1020048859 3.0963682062 3.0942799528 3.1165821598 3.2198300459 3.2223170443 
3.224756831 3.2252853933 3.1745132791 3.0971257611 3.0236061472 3.0273503373 3.0008571121 3.002014222 2.9828478895 
2.9973441782 3.0102670807 3.0381986841 3.0592055117 3.044615854 3.1011792616 3.059287646 3.0782884984 3.0962190263 
3.1020317122 3.1149712728 3.1227727313 3.1347600113 3.1396583933 3.1464733591 3.1477594647 3.1458999626 3.1428078966 
3.1367805577 3.1313630344 3.1264603825 3.121230801 3.1163288307 3.1114779133 3.0948793727 3.0913129677 3.0856032947 
3.078391998 3.0673594016 3.0577777683 3.0483598517 3.0415322873 3.026893427 3.0910999948 3.1131149849 3.1313539444 
3.1407420898 3.154809866 3.1618307973 3.1714637011 3.1757116411 3.1847002958 3.1950898661 3.2007324145 3.2072777793 
3.2104266744 3.2177083373 3.2212244559 3.2221858611 3.2241166032 3.2265648 3.10147069 3.0808931 3.0882619182 
3.0837664267 3.0763188977 3.0666591992 3.0576723252 3.0475716339 3.0404800985 3.0429750554 3.2248448735 3.2191196809 
3.1243872673 3.2218340751 3.1186330218 3.2258441826 3.2274175485 3.2146710732 3.1077096655 3.103978731 3.2226373853 
3.0996800057 3.0891160399 3.0869379297 3.1141351427 3.2231638206 3.2257724939 3.2273079131 3.23707648 3.0751558248 
3.0953832968 3.023543385 3.0284896583 3.0012031893 3.003012693 2.9811353436 2.9922378702 3.0061252925 3.0387746142 
3.0596609843 3.0450135317 3.0991867789 3.0654208199 3.0827006913 3.1017422259 3.1096809206 3.1222525522 3.1297526366 
3.1412465301 3.1473396166 3.1523613054 3.1514990053 3.147741787 3.1431422341 3.1363774364 3.1308990868 3.1254475256 
3.1198443272 3.114303912 3.109516921 3.09320755 3.0896217652 3.0842705179 3.0769066904 3.0663430283 3.0565960704 
3.0478675078 3.0409379151 3.028472796 3.0944100834 3.1180609876 3.1337924735 3.1465480507 3.1528898453 3.1648513359 
3.1780109191 3.186880207 3.1952264298 3.2066588826 3.213025961 3.2180899211 3.2200578076 3.2265426862 3.2291991057 
3.2295477287 3.2309750507 3.232330079 3.0922300252 3.0910295666 3.0872977922 3.0829146359 3.0753717084 3.0656419063 
3.056279971 3.0470789095 3.0394935825 3.0426682228 3.2312091436 3.2278868751 3.123144742 3.22970854 3.1168827903 
3.2318917717 3.2300873394 3.2238647149 3.1059455912 3.1021585379 3.2298804041 3.0975769086 3.0889804341 3.0889092337 
3.1117957659 3.2300850692 3.2317488324 3.2328165729 3.1241973781 3.0959385792 3.0939107758 3.0242369543 3.03067208 
3.0020691589 3.0067453421 2.9849506664 2.9942328834 3.0069454093 3.0405252485 3.0611104644 3.0465751464 3.0977287307 
3.0682376742 3.0855576822 3.1025243524 3.1118771535 3.1245287593 3.1346147453 3.1443363657 3.1508003659 3.1556001041 
3.1530572251 3.148040508 3.1422526894 3.1350320247 3.1294211424 3.1237587731 3.1182574938 3.112690688 3.1076451871 
3.0917067338 3.0880705292 3.0831232038 3.0757377006 3.0656518306 3.0560399844 3.0477241194 3.0404843792 3.029386301 
3.0957290758 3.1196468249 3.13495019 3.14810331 3.1579867967 3.1688922326 3.1804960329 3.1863771958 3.1978066417 
3.2113859887 3.221561702 3.2257959397 3.2288256699 3.2351210126 3.237092671 3.2370415671 3.2384002369 3.2398452492 
3.0899883198 3.0907603051 3.0887678425 3.0843272857 3.0770772286 3.0672052573 3.0576389225 3.0485329037 3.0408828958 
3.0431195248 3.2385057826 3.2362522352 3.1216270898 3.2373817989 3.1153875775 3.2389894766 3.1902093931 3.2324606749 
3.1042252912 3.1006620483 3.2374474868 3.0958270277 3.0901219585 3.0907958713 3.1099869799 3.2376729475 3.2387996916 
3.238649183 3.087358723 3.0959437986 3.0925124955 3.0246957232 3.031798853 3.002792094 3.0078796693 2.9858495986 
2.9954816625 3.0083542073 3.0411820171 3.0630460464 3.0481748753 3.0962704443 3.0698583071 3.0879846125 3.1038707374 
3.1137853241 3.1263840292 3.1374114195 3.1472924624 3.1546332588 3.1579687404 3.1542203213 3.1477858526 3.1410326613 
3.1336325582 3.1279043697 3.1221215676 3.116719309 3.1111352727 3.1061460761 3.0903614076 3.0867521606 3.0820175708 
3.0747179623 3.0649095239 3.0553232962 3.0472712648 3.0398615372 3.029826673 3.0970679686 3.1213965967 3.1364243326 
3.1495246222 3.158941815 3.1706542037 3.1835293282 3.1909993823 3.2026266044 3.2158341396 3.2275149124 3.2337673118 
3.2367705381 3.2435031769 3.2454369515 3.2449464748 3.2456173926 3.2461683939 3.086715216 3.0897688735 3.0895984729 
3.0851827637 3.0780932294 3.0683495148 3.0590104801 3.0499473979 3.0421344144 3.0443242988 3.2457575943 3.2444126909 
3.1201197046 3.24560907 3.1138363733 3.2459546349 3.0858047296 3.2404985855 3.1027772304 3.0993276854 3.2450797581 
3.094275992 3.0911265181 3.0903830395 3.1084005468 3.2451553557 3.245667463 3.2414430774 3.0840579288 3.0876257065 
3.0916261432 3.0241501351 3.0321070971 3.0030387411 3.0073643709 2.9857295133 2.9953212435 3.0086020408 3.0412341557 
3.0636193194 3.0488537445 3.0953026295 3.0706145568 3.0892866046 3.1049967357 3.1153989219 3.1279418016 3.1397850668 
3.1490969061 3.1567265053 3.1597898576 3.1549362414 3.1474435001 3.1400132025 3.1326998291 3.1268523294 3.1210576352 
3.1153640739 3.1100209301 3.1050527006 3.089405983 3.0858521602 3.0812354664 3.0739827996 3.0643640496 3.0546885086 
3.046761957 3.0392677876 3.0300052645 3.0976563591 3.1221654468 3.1373739097 3.150436133 3.160311316 3.1719808847 
3.184608568 3.1929672817 3.2050236861 3.2191311021 3.2314472211 3.2392313782 3.2437318898 3.2508401137 3.2526041798 
3.252855894 3.2530535216 3.2548343763 3.0878326649 3.0888824654 3.0876647865 3.0829812653 3.0762259622 3.0669370921 
3.0579013076 3.0491331012 3.0411883825 3.043848304 3.2529676728 3.2526866555 3.1188955067 3.2531537146 3.1126420311 
3.2534092196 3.0802095885 3.2476848131 3.1017263973 3.0983591477 3.2526435617 3.0933219025 3.0892500693 3.0884597075 
3.1072809077 3.2526834809 3.253463638 3.2371829178 3.0837992216 3.088181501 3.0910567355 3.0229702006 3.0324450108 
3.0033346164 3.0076604088 2.98621632 2.9953817054 3.0087871696 3.041503214 3.0639357781 3.0492349686 3.0946001144 
3.0710540742 3.0897789351 3.1053516992 3.1161682068 3.1287392306 3.141232485 3.150197938 3.1579978 3.1610851235 
3.1554334877 3.1472133306 3.1394289699 3.1323575515 3.1262753676 3.1205766374 3.1145340372 3.1095111747 3.1045397004 
3.088872894 3.0854622614 3.0809031376 3.0736934261 3.0641635446 3.0543766336 3.0465159803 3.0390127674 3.0302283891 
3.0980971519 3.1226756256 3.1380948117 3.1511873861 3.1611205741 3.1728529549 3.1854002742 3.1945598364 3.2069404002 
3.2211115951 3.2340289119 3.2433532345 3.2488638102 3.2568611158 3.2603830564 3.2597527705 3.2603215111 3.2670264461 
3.0850918334 3.0848156998 3.0831859883 3.0786448608 3.0721164637 3.0631257893 3.0544141046 3.046076123 3.0382662148 
3.0412265377 3.2609927142 3.2587410999 3.1181286738 3.260246261 3.1120460822 3.2610536258 3.0866760684 3.2530814395 
3.1012050629 3.0979684317 3.2599812255 3.092654201 3.084577487 3.0840806691 3.1068154808 3.260010371 3.2611399745 
3.1122521574 3.0855896529 3.0856118759 3.0909336845 3.0220898873 3.0327449239 3.0036164237 3.0083115657 2.9868509382 
2.9956863218 3.0092456423 3.0420370603 3.0644470011 3.0492826686 3.0945750204 3.0711833976 3.0899162868 3.1053299172 
3.1165827655 3.1290554366 3.1420600716 3.1508898573 3.1586827745 3.162125335 3.1560019506 3.1473640968 3.1394170164 
3.1325572804 3.1262529978 3.1206461705 3.114593338 3.1095701717 3.1045252503 3.0889126149 3.0854775392 3.0809286767 
3.0737796199 3.0642708874 3.0545319831 3.0466543835 3.039140792 3.0304722356 3.098810843 3.1233029624 3.1389323263 
3.1521001118 3.1620925702 3.1738556864 3.1862344735 3.1958494953 3.2085956966 3.2227221181 3.2358992829 3.2460098163 
3.2523945278 3.2608733141 3.2648171067 3.2659634129 3.266781293 3.2736026968 3.0773780938 3.0791221033 3.0784538945 
3.0741480215 3.0678805374 3.0589105766 3.0504210712 3.0424716998 3.0348467671 3.037837639 3.2670321699 3.2634581261 
3.1182037538 3.2660299572 3.1120775006 3.267581966 3.0772899572 3.2568910145 3.1012343329 3.0979452875 3.2661487103 
3.0925155257 3.0799322889 3.0797092873 3.1068225904 3.2662460834 3.2670513864 3.0814974009 3.0791366604 3.0779143643 
3.0913592802 3.0219642173 3.0331034168 3.0038426972 3.0091487851 2.9874816702 2.9960777365 3.0097604838 3.0427039238 
3.0650971596 3.0491994938 3.0951806381 3.0709018458 3.0896972981 3.1051492751 3.1167172408 3.1292197269 3.1425136762 
3.1511459917 3.1592305774 3.1630453485 3.1567509568 3.1479853358 3.1399610706 3.1332668556 3.1268513334 3.1212721458 
3.1150761089 3.1101109164 3.1049965711 3.0893772159 3.0859355478 3.0812900225 3.074172428 3.064635194 3.05491857 
3.0470035678 3.0395102379 3.0309309647 3.0997646234 3.1241171886 3.1400326322 3.153287197 3.1633017218 3.1750985638 
3.1873554846 3.1972677052 3.2103143786 3.2242838387 3.2375941978 3.2480867409 3.2547535917 3.2637189786 3.2683279497 
3.2700104082 3.2709994462 3.2820476514 3.0752374438 3.0752015833 3.0747646699 3.0707208876 3.0648600373 3.0557365988 
3.0473894862 3.039778993 3.0327075181 3.0353987176 3.2715656264 3.2665119332 3.1186952089 3.2696275715 3.1125973006 
3.2725040595 3.0805847404 3.2593233858 3.1016552433 3.0982493503 3.2705200449 3.0930758884 3.0759309019 3.0754552164 
3.1074199859 3.2706103804 3.2718973234 3.078991564 3.078612924 3.0743062934 3.092266437 3.0223793037 3.0334982689 
3.0039858885 3.0098342755 2.9881669611 2.9965353606 3.010313683 3.0435108557 3.0658962251 3.0484813618 3.0961767588 
3.0701284527 3.0890560615 3.1046601573 3.1165050812 3.1288625106 3.1423545585 3.1509732473 3.1591979048 3.1638095492 
3.1576535411 3.1490586953 3.1410096271 3.1344607669 3.1279422549 3.1223890823 3.1160785185 3.1111373768 3.1059503091 
3.090240994 3.0867383882 3.081994755 3.0748618602 3.0652258819 3.0554903066 3.0474910987 3.0400443402 3.0312075981 
3.1009873155 3.1251982115 3.1414466607 3.1547880487 3.164809519 3.1766250563 3.1887657324 3.1989242912 3.2122207025 
3.2259686243 3.2393419206 3.2499456846 3.2566325319 3.2657986317 3.2707033511 3.2728143856 3.2740168328 3.285663673 
3.0754042221 3.0741113023 3.0726804228 3.0686880663 3.062953501 3.0536829846 3.0454323204 3.0380062288 3.03174129 
3.033994721 3.2747297386 3.2688249139 3.1197028369 3.2721755219 3.1136021004 3.2757215916 3.081456921 3.2611383113 
3.1025269007 3.0992187083 3.2733741051 3.0940530526 3.0741503468 3.0744262136 3.108462416 3.2736006516 3.2752014581 
3.0808819433 3.0781763068 3.0740086393 3.0933512527 3.0226737408 3.0338032582 3.00404144 3.0106189127 2.9889579348 
2.9971385621 3.0109416259 3.0446871708 3.0669139552 3.0475843357 3.0972889312 3.0691475928 3.0879780942 3.103854007 
3.1159322468 3.1282203316 3.1416264646 3.1508424401 3.1590954071 3.1645429398 3.1588451551 3.1505938693 3.1425848065 
3.1360717614 3.1294049698 3.1238358015 3.1174854778 3.1123951626 3.1072037288 3.0912917619 3.0877387125 3.0828796922 
3.0757122616 3.065946295 3.0561651834 3.0480550828 3.0406557252 3.0313016134 3.1025074135 3.126610854 3.1431729928 
3.1565833574 3.1666039045 3.1784408125 3.1905085741 3.2008284124 3.2143500823 3.2279254754 3.2412562109 3.2518964434 
3.258414655 3.2674122206 3.2727296218 3.2749013263 3.2761599633 3.2893027992 3.0735992422 3.0723619677 3.070799725 
3.0668204871 3.0612394501 3.0520826727 3.0440027844 3.0367376937 3.0308976427 3.0328561296 3.276931022 3.2706804573 
3.1210887254 3.2740887835 3.1148740567 3.2781159926 3.079105051 3.2627658512 3.1035833026 3.100237302 3.2754614537 
3.09521985 3.072187997 3.0727745258 3.1097406718 3.2757125509 3.2775689668 3.0835324067 3.0753927448 3.0729233431 
3.094536625 3.0230234312 3.0340556077 3.0039114244 3.010712118 2.9896392293 2.9978717875 3.0116579575 3.0457430545 
3.0681197545 3.0464807727 3.0985415519 3.0679827248 3.0867001549 3.1028402498 3.1149815846 3.1272877023 3.1406962826 
3.1503866668 3.1593955618 3.1653300027 3.160260129 3.1525187666 3.1444346818 3.137861834 3.1310258871 3.1253716681 
3.1190544175 3.1137895147 3.1085608165 3.0924542596 3.0888220749 3.0838185636 3.076572297 3.0666681154 3.0568417062 
3.0486112478 3.0412503623 3.0312694656 3.1042303383 3.1283822731 3.145151618 3.1586478665 3.1686657447 3.1804908423 
3.1925723053 3.2029974464 3.2168177684 3.2301773712 3.2433888205 3.2540187016 3.2603403116 3.2690773288 3.2746347985 
3.2767845307 3.2779583966 3.2956370656 3.0721767516 3.0714670087 3.0696380096 3.0659541682 3.0603159087 3.0513302349 
3.0433713339 3.0361857159 3.0306010549 3.0324563009 3.2787996468 3.2724462699 3.1226621756 3.2759474255 3.1163372201 
3.2801746284 3.0747897055 3.2644939898 3.1049501936 3.1014529178 3.2772685145 3.0964632676 3.0710677594 3.0717168834 
3.1111319771 3.2775238918 3.2792489421 3.0795131775 3.0731554785 3.0718496999 3.0956970764 3.0235261116 3.0343500082 
3.0038456239 3.0103081403 2.9902952959 2.9989525679 3.0125813938 3.0470464678 3.0693961243 3.0453705439 3.0997020275 
3.0667039586 3.0855323801 3.1011082781 3.1131220351 3.125818649 3.1391465542 3.1500917914 3.1588270431 3.1655143597 
3.1613906482 3.1543519584 3.1462773952 3.1396041803 3.132596436 3.1268020866 3.1205370837 3.1152001576 3.1098609619 
3.0935490647 3.0898594816 3.0847292687 3.0773816304 3.0673505385 3.0574672453 3.0491141041 3.0417882739 3.0311164524 
3.106155476 3.1305641292 3.147229207 3.1608644609 3.1708943775 3.1827401614 3.1949288226 3.2054165222 3.2196125845 
3.2326942955 3.2457987075 3.2563093652 3.2624753548 3.2709521388 3.2766587604 3.2788400328 3.2798501149 3.2700827401 
3.0732378938 3.0725121475 3.0699205923 3.0661054672 3.0602207576 3.0516112306 3.0437851615 3.0365521494 3.0311624628 
3.0329536075 3.2806994467 3.2743317706 3.1242146262 3.277987048 3.1178495308 3.2829571583 3.0747261586 3.2664480866 
3.106300778 3.1026268061 3.2792435579 3.0976693842 3.071540005 3.0722038953 3.1124950255 3.2794221722 3.281485042 
3.0721242546 3.0741207057 3.0729524014 3.0967843482 3.0240388145 3.0342290206 3.0038418749 3.010397405 2.9912065094 
3.0002668695 3.0136558757 3.0486082447 3.0709105166 3.0440000328 3.1008230251 3.0652104763 3.0842244151 3.0991451344 
3.1109973141 3.1239822028 3.1372175846 3.1493362387 3.159062405 3.1659046746 3.1629631395 3.1565665037 3.148453304 
3.1414215282 3.1341504237 3.1280873618 3.1219759373 3.116354685 3.1110857798 3.0945791741 3.090859384 3.085614817 
3.0781692483 3.0679949498 3.0580069232 3.0495310758 3.0421868009 3.0307663609 3.108186571 3.1329423349 3.1493525335 
3.1631039485 3.1731316722 3.1849178261 3.1973789511 3.2079054091 3.2223934307 3.2352981402 3.2481469116 3.2588129631 
3.2648677885 3.2731060591 3.2791489972 3.2816427173 3.2826336697 3.0847939773 3.0709159718 3.0713138589 3.0698182591 
3.0662571104 3.0605073886 3.052468455 3.0448518504 3.0376038591 3.0322653956 3.0341242128 3.2837371387 3.2765079554 
3.1256647336 3.2802956784 3.1192718528 3.2852425478 3.0709814397 3.2686963659 3.1074948756 3.1037573856 3.28172866 
3.0988081165 3.0713518657 3.0717172258 3.1137202195 3.2820905931 3.2835463908 3.0688324895 3.0703929828 3.070910713 
3.0977928055 3.0244900996 3.0326519101 3.0029472018 3.0105268192 2.9909092471 3.0008712922 3.014340714 3.048973315 
3.0720050722 3.0420932378 3.1018949738 3.0629235469 3.0821284609 3.0971048915 3.1089976816 3.1221314775 3.1347544661 
3.1491434625 3.1580820702 3.1666445222 3.1651177596 3.1593631205 3.1510999846 3.1434269244 3.1357954524 3.1294837561 
3.1233862993 3.1179675562 3.1124043855 3.0955675849 3.0917325564 3.0864499384 3.0788080947 3.068456612 3.0582909865 
3.0497215946 3.0422597588 3.0298013092 3.109542243 3.1348287651 3.15101137 3.1646689212 3.1748446939 3.1869463142 
3.1996355705 3.2102168467 3.2247884364 3.2379054234 3.2511618553 3.2612590214 3.2677121269 3.276209028 3.2833179904 
3.2852914561 3.2854664104 3.0684340232 3.0712503169 3.0714979395 3.0710211269 3.0673392561 3.0620296867 3.0542016939 
3.0466719349 3.0392872509 3.033807057 3.03584914 3.28552784 3.2799249735 3.1271795306 3.2843780489 3.1205746237 
3.2971080304 3.0694569649 3.2714871855 3.1089057738 3.1049279046 3.285420552 3.0998492598 3.0723509435 3.0720203953 
3.1151116011 3.2855751024 3.2963265094 3.0668518075 3.070630342 3.0710308707 3.0984843978 3.0247048329 3.0311669861 
3.0007791529 3.0062927411 2.9897531514 3.0000438857 3.0140713914 3.0480395051 3.0721430228 3.0395366641 3.1027270589 
3.0612416579 3.0800942508 3.0962386059 3.107545422 3.121081733 3.1326793781 3.1497925971 3.1591109661 3.1685359737 
3.1698593383 3.1633918565 3.1545043699 3.1454004028 3.1373858252 3.1306660006 3.1241651023 3.1183987363 3.1134579564 
3.096417537 3.0923694124 3.0870846156 3.0794523204 3.0687603545 3.0582238995 3.049528119 3.0417963126 3.0282783494 
3.1106099314 3.1359894371 3.1525641191 3.1669438058 3.1769976496 3.1892727576 3.2018800106 3.2130536524 3.2287251536 
3.2421928403 3.2554654162 3.2684686904 3.2727388403 3.2805837816 3.286323427 3.286617118 3.2847450512 3.0679897226 
3.0743479416 3.0737656983 3.0735522734 3.0705713389 3.0649681125 3.0567003506 3.0493021658 3.0420346207 3.0360122152 
3.0387685548 3.287746269 3.2840700663 3.1278544426 3.2862739546 3.1212597335 3.056122519 3.0724836188 3.2760090379 
3.1092669611 3.1056481552 3.2858169644 3.1006038207 3.0746688874 3.0746225374 3.1162124575 3.2851844865 3.1968754683 
3.067394956 3.0731792374 3.0741870441 3.0985991369 3.0277350166 3.0325527781 3.0039523501 3.0075678808 2.9907004146 
3.0025720818 3.0170690992 3.0530695566 3.0737884801 3.0424482536 3.1016662059 3.061810946 3.0817566269 3.0970030883 
3.1097783525 3.1231303501 3.1350719551 3.1539729889 3.174514772 3.1758945426 3.174743529 3.1665122214 3.1551008733 
3.144828254 3.1368221086 3.1295048926 3.1231344839 3.1166632284 3.1114762001 3.095425444 3.0929577718 3.0875404689 
3.0781525679 3.0687288286 3.0575373779 3.0485763991 3.0398605119 3.0268985158 3.1095624396 3.1365064938 3.1586210982 
3.1729584033 3.1819118007 3.1997696508 3.2085556222 3.2192695765 3.2365396523 3.2493124832 3.2653736114 3.2736435605 