# vtk DataFile Version 4.2
vtk output
ASCII
DATASET UNSTRUCTURED_GRID
POINTS 1740 double
2144.07 -94.44003 0 2911 0 0 16.54298 -37.82236 0 
5.09149 -21.30132 0 1.27433 -10.75385 0 0 0 0 
2.54575 15.14293 0 6.36291 23.76126 0 14.00014 34.89063 0 
30.50239 50.70793 0 33.39435 -52.93479 0 2050.91 -103.7862 0 
60.1465 -69.72165 0 88.83633 -83.2817 0 118.7656 -94.71113 0 
153.4168 -105.7022 0 199.5806 -117.771 0 261.4466 -130.7139 0 
345.846 -144.1892 0 460.3522 -157.0592 0 608.4185 -167.1903 0 
783.2313 -172.4016 0 941.0559 -172.4533 0 1063.409 -170.1096 0 
1164.153 -166.8746 0 1263.449 -162.682 0 1375.468 -156.8941 0 
1513.293 -148.414 0 1665.281 -137.5317 0 1791.864 -127.3721 0 
2195.451 -89.09491 0 2273.924 -80.67077 0 2383.731 -68.3513 0 
2517.64 -52.47337 0 2649.227 -35.9232 0 2740.773 -23.82991 0 
2804.387 -15.13419 0 2848.802 -8.916218 0 2881.944 -4.196067 0 
56.61447 67.79801 0 84.09687 81.25172 0 112.4783 92.48395 0 
142.1748 102.3504 0 174.8563 111.6168 0 213.124 120.8806 0 
260.3759 130.5151 0 324.6539 141.1779 0 418.1422 152.9178 0 
535.6656 162.9871 0 690.9154 170.4255 0 902.6513 172.7852 0 
1100.32 169.0517 0 1270.99 162.3262 0 1462.794 151.6837 0 
1631.287 140.0952 0 1747.993 131 0 1922.788 115.9027 0 
2069.56 101.951 0 2128.804 96.0021 0 2297.147 78.11721 0 
2414.379 64.80104 0 2554.023 47.99319 0 2673.693 32.73885 0 
2757.97 21.50315 0 2814.297 13.7575 0 2852.02 8.460961 0 
2882.272 4.148909 0 1791.052 127.4402 0 1366.894 157.3738 0 
1444.38 -152.8302 0 1547.039 146.1296 0 1589.287 -143.1614 0 
1878.731 119.8675 0 1997.072 108.9828 0 1185.654 166.0472 0 
1882.536 -119.5292 0 1971.323 -111.4145 0 1684.777 136.0292 0 
2099.317 -98.9855 0 2234.809 84.9091 0 2181.695 90.53914 0 
1728.573 -132.5703 0 1718.815 133.3509 0 1834.825 123.7132 0 
1960.305 112.4444 0 2033.69 105.4648 0 2099.184 98.99892 0 
2214.291 -63.943494211 396.8421 2955.512 22.679677162 396.8421 158.0786 -15.147621335 396.8421 
147.0109 0.71172518978 396.8421 143.3217 10.868568454 396.8421 142.09 21.248201488 396.8421 
144.5505 35.904169732 396.8421 148.2398 44.26707932 396.8421 155.621 55.091262265 396.8421 
171.5701 70.525284301 396.8421 174.3652 -29.597757335 396.8421 2124.254 -72.659425626 396.8421 
200.2206 -45.579451882 396.8421 227.9488 -58.430354013 396.8421 256.8748 -69.216722734 396.8421 
290.3647 -79.545419956 396.8421 334.981 -90.829426797 396.8421 394.7733 -102.84919934 396.8421 
476.3434 -115.24240467 396.8421 587.0114 -126.89418112 396.8421 730.1145 -135.78496458 396.8421 
899.0676 -139.92750674 396.8421 1051.602 -139.32806959 396.8421 1169.853 -136.66284621 396.8421 
1267.221 -133.27470197 396.8421 1363.188 -129.02496511 396.8421 1471.452 -123.27962282 396.8421 
1604.657 -115.00214574 396.8421 1751.55 -104.52859709 396.8421 1873.891 -94.853740738 396.8421 
2263.949 -58.97523187 396.8421 2339.792 -51.166805827 396.8421 2445.918 -39.790610105 396.8421 
2575.338 -25.192710742 396.8421 2702.515 -10.040650255 396.8421 2790.992 0.9969502751 396.8421 
2852.473 8.9185073855 396.8421 2895.4 14.576024189 396.8421 2927.431 18.867247928 396.8421 
196.807 87.273233849 396.8421 223.3682 100.51528008 396.8421 250.7983 111.61402233 396.8421 
279.4994 121.39925039 396.8421 311.0855 130.62400007 396.8421 348.0705 139.88448895 396.8421 
393.7383 149.56395793 396.8421 455.8617 160.34920402 396.8421 546.2162 172.35074698 396.8421 
659.8003 182.83386335 396.8421 809.846 190.89163471 396.8421 1014.485 194.12760627 396.8421 
1205.528 191.17069547 396.8421 1370.477 185.04512567 396.8421 1555.851 174.97095369 396.8421 
1718.696 163.77267216 396.8421 1831.49 154.88240005 396.8421 2000.426 139.98550755 396.8421 
2142.278 126.09971263 396.8421 2199.537 120.15047379 396.8421 2362.236 102.17885241 396.8421 
2475.539 88.727157987 396.8421 2610.501 71.677736257 396.8421 2726.16 56.147791957 396.8421 
2807.613 44.680597016 396.8421 2862.05 36.763244565 396.8421 2898.509 31.344173288 396.8421 
2927.749 26.929519801 396.8421 1873.106 151.38403513 396.8421 1463.165 180.39229149 396.8421 
1538.054 -119.29673914 396.8421 1637.272 169.62545749 396.8421 1678.104 -109.93000977 396.8421 
1957.846 143.91213207 396.8421 2072.22 133.11088906 396.8421 1288 188.47598833 396.8421 
1961.524 -87.437353287 396.8421 2047.334 -79.803612733 396.8421 1770.393 159.80753792 396.8421 
2171.038 -68.177725162 396.8421 2301.989 109.01767755 396.8421 2250.655 114.67395863 396.8421 
1812.721 -99.793321516 396.8421 1803.29 157.18723488 396.8421 1915.411 147.711388 396.8421 
2036.686 136.55299836 396.8421 2107.61 129.60619849 396.8421 2170.909 123.14944738 396.8421 
2284.511 -38.345038452 793.6842 3000.027 42.636227802 793.6842 299.6143 2.6142280373 793.6842 
288.9304 17.831657743 793.6842 285.3691 27.602440044 793.6842 284.1801 37.6063815 793.6842 
286.5551 51.763086162 793.6842 290.1167 59.858045997 793.6842 297.2417 70.354537337 793.6842 
312.6379 85.360642517 793.6842 315.336 -11.205917704 793.6842 2197.597 -46.620206116 793.6842 
340.2947 -26.435390321 793.6842 367.0612 -38.633919089 793.6842 394.9839 -48.835509348 793.6842 
427.3123 -58.567607467 793.6842 470.3812 -69.151336332 793.6842 528.0998 -80.354945408 793.6842 
606.8411 -91.799804117 793.6842 713.6708 -102.39177834 793.6842 851.8104 -110.20676029 793.6842 
1014.904 -113.41627379 793.6842 1162.147 -112.23410934 793.6842 1276.298 -109.26499746 793.6842 
1370.288 -105.71521968 793.6842 1462.927 -101.37963258 793.6842 1567.436 -95.620788851 793.6842 
1696.021 -87.441967432 793.6842 1837.82 -77.218686081 793.6842 1955.917 -67.861730164 793.6842 
2332.447 -33.642071682 793.6842 2405.659 -26.269301227 793.6842 2508.105 -15.565040122 793.6842 
2633.037 -1.8858888808 793.6842 2755.801 12.255311109 793.6842 2841.209 22.525197103 793.6842 
2900.561 29.881545271 793.6842 2941.997 35.128887967 793.6842 2972.917 39.105578753 793.6842 
336.9995 101.7002906 793.6842 362.6396 114.66465706 793.6842 389.1182 125.56458373 793.6842 
416.8239 135.20309451 793.6842 447.3145 144.31706136 793.6842 483.0167 153.49701095 793.6842 
527.1009 163.13136993 793.6842 587.0697 173.92576116 793.6842 674.2905 186.04266196 793.6842 
783.9349 196.78580441 793.6842 928.7766 205.30944114 793.6842 1126.317 209.3015386 793.6842 
1310.735 207.09913678 793.6842 1469.963 201.62240923 793.6842 1648.908 192.2447296 793.6842 
1806.105 181.6122306 793.6842 1914.987 173.08186971 793.6842 2078.064 158.66811614 793.6842 
2214.996 145.13157592 793.6842 2270.269 139.30798895 793.6842 2427.326 121.64374096 793.6842 
2536.699 108.36204436 793.6842 2666.98 91.467735425 793.6842 2778.628 76.029973062 793.6842 
2857.255 64.605458247 793.6842 2909.806 56.706542232 793.6842 2945.001 51.295387459 793.6842 
2973.224 46.884570355 793.6842 1955.16 169.70890902 793.6842 1559.437 197.32363122 793.6842 
1631.729 -91.671646665 793.6842 1727.505 187.18838658 793.6842 1766.921 -82.476786701 793.6842 
2036.96 162.4795613 793.6842 2147.368 151.9768731 793.6842 1390.347 204.73089667 793.6842 
2040.511 -60.732951245 793.6842 2123.346 -53.428870314 793.6842 1856.009 177.81555889 793.6842 
2242.759 -42.361056576 793.6842 2369.167 128.3773808 793.6842 2319.614 133.93598472 793.6842 
1896.869 -72.630151522 793.6842 1887.765 175.29941534 793.6842 1995.998 166.15959667 793.6842 
2113.066 155.32996206 793.6842 2181.531 148.5576328 793.6842 2242.634 142.24525578 793.6842 
2354.732 -17.375723846 1190.526 3044.539 59.599068501 1190.526 441.15 16.104757865 1190.526 
430.8497 30.698230334 1190.526 427.4164 40.087584769 1190.526 426.2701 49.715378351 1190.526 
428.5601 63.363514464 1190.526 431.9934 71.180506993 1190.526 438.8627 81.331096444 1190.526 
453.7057 95.872502996 1190.526 456.3069 2.8859420435 1190.526 2270.94 -25.345952584 1190.526 
480.3688 -11.637706185 1190.526 506.1737 -23.233468403 1190.526 533.0934 -32.901271432 1190.526 
564.26 -42.094497762 1190.526 605.7815 -52.05232147 1190.526 661.4265 -62.534478988 1190.526 
737.3385 -73.151034758 1190.526 840.33 -82.827937456 1190.526 973.5064 -89.723320907 1190.526 
1130.74 -92.138903069 1190.526 1272.693 -90.45679871 1190.526 1382.742 -87.220306819 1190.526 
1473.356 -83.520843012 1190.526 1562.666 -79.09504155 1190.526 1663.42 -73.298460032 1190.526 
1787.385 -65.16108294 1190.526 1924.09 -55.089485573 1190.526 2037.944 -45.940197461 1190.526 
2400.946 -12.857231843 1190.526 2471.527 -5.788743431 1190.526 2570.292 4.443749847 1190.526 
2690.735 17.473815977 1190.526 2809.091 30.896288811 1190.526 2891.43 40.617652887 1190.526 
2948.647 47.568802265 1190.526 2988.597 52.521276051 1190.526 3018.403 56.271562047 1190.526 
477.1918 111.74882919 1190.526 501.9109 124.38010804 1190.526 527.4382 135.0261194 1190.526 
554.1485 144.46220521 1190.526 583.5435 153.4062425 1190.526 617.963 162.43938644 1190.526 
660.4633 171.95066918 1190.526 718.2775 182.65500784 1190.526 802.3645 194.75683512 1190.526 
908.0698 205.61853069 1190.526 1047.707 214.45889175 1190.526 1238.151 219.07208756 1190.526 
1415.942 217.56794318 1190.526 1569.449 212.74482928 1190.526 1741.965 204.12750902 1190.526 
1893.514 194.16709416 1190.526 1998.484 186.09755823 1190.526 2155.702 172.35944821 1190.526 
2287.714 159.37173209 1190.526 2341.001 153.76411293 1190.526 2492.415 136.69423835 1190.526 
2597.858 123.80879897 1190.526 2723.46 107.36699878 1190.526 2831.095 92.300344268 1190.526 
2906.899 81.128124324 1190.526 2957.56 73.393883108 1190.526 2991.49 68.091257408 1190.526 
3018.699 63.766491407 1190.526 2037.214 182.892935 1190.526 1655.708 208.82442496 1190.526 
1725.403 -69.358224785 1190.526 1817.738 199.40762564 1190.526 1855.738 -60.258196409 1190.526 
2116.075 176.00263894 1190.526 2222.516 165.94829709 1190.526 1492.694 215.52246268 1190.526 
2119.498 -39.004271675 1190.526 2199.357 -31.924283646 1190.526 1941.625 190.58227836 1190.526 
2314.479 -21.240492741 1190.526 2436.346 143.21121237 1190.526 2388.573 148.58201905 1190.526 
1981.017 -50.595626485 1190.526 1972.24 188.20040284 1190.526 2076.584 179.51348141 1190.526 
[...]
POINT_DATA 1740
FIELD FieldData 1
Pressure 1 1740 double
3.1036947161 3.0192193061 3.0093055886 2.9859964994 2.9743559349 2.9513480266 2.9676484112 2.9857432573 3.0179696925 
3.0305166236 3.0129259848 3.1073589764 3.0373825109 3.0516094605 3.0681713726 3.0672482181 3.0838587766 3.0885493238 
3.1097689835 3.1136669601 3.131883279 3.1403986162 3.1417946827 3.1466506222 3.1409924664 3.1365137638 3.1331844356 
3.1292839935 3.122906438 3.1178006255 3.1008054928 3.097869929 3.0921027538 3.0845322227 3.0735229697 3.0640437434 
3.0533606523 3.0455377246 3.0343181386 3.0663976044 3.0791810987 3.0916494287 3.1041132525 3.1079422666 3.1184331709 
3.1252768749 3.1337608577 3.1502433187 3.163850023 3.1798534972 3.1916278494 3.1990889793 3.2056681494 3.2115957665 
3.2160215468 3.2188986007 3.2200470837 3.2437434806 3.1071868733 3.0904723807 3.0851182335 3.0758939272 3.0658947285 
3.0562062072 3.0451849037 3.0383692285 3.0362508819 3.2190366525 3.2090629551 3.1319315865 3.2129439074 3.1261249397 
3.219752268 3.2217617324 3.2057750783 3.1139002782 3.1104199671 3.216634998 3.1055762893 3.0919924034 3.0894563812 
3.1203425931 3.2180672484 3.2199794665 3.2210840667 3.221437132 3.1970903992 3.1000599548 3.0236218594 3.0258213341 
2.9983380468 3.0047829032 2.9837987723 2.9945917301 3.0077174035 3.0342028732 3.0518956365 3.0379903037 3.1040936825 
3.0575118021 3.0703137118 3.0835944971 3.0867983723 3.1027531497 3.1110525246 3.1246023051 3.1297356047 3.1395643431 
3.1434010827 3.1457895263 3.1454116475 3.1402521815 3.1353987447 3.1299256843 3.1254968187 3.1199306458 3.1146035326 
3.097645347 3.0939133001 3.0881231697 3.0807186993 3.0696929381 3.0602669248 3.0501738587 3.0432395582 3.025094365 
3.0844589041 3.104387703 3.1157380552 3.1250707554 3.1334525618 3.1391651604 3.14437198 3.1539218622 3.1668476103 
3.1777574262 3.186655298 3.1950655033 3.2019896339 3.2088675585 3.2125097355 3.2158024427 3.2185750599 3.2215144743 
3.1323777251 3.088946268 3.089636367 3.0847296717 3.0765046337 3.0665016544 3.0569712244 3.0462318263 3.0400272004 
3.0416904117 3.2193578277 3.2110861173 3.1287023174 3.2145716031 3.1225114459 3.2206536669 3.2229251445 3.2072661522 
3.1106893339 3.1071087642 3.2169466483 3.1024189782 3.0910851795 3.0881187915 3.1175968952 3.217803971 3.2200546425 
3.2225218705 3.2298980876 3.0836087534 3.0973057466 3.0234987436 3.0272607253 3.000730652 3.0009554421 2.9823424483 
2.9969821601 3.0098079068 3.0377066266 3.0583833942 3.0461395514 3.1014974518 3.060779608 3.0799242498 3.0978012709 
3.1032718335 3.1168577322 3.124843211 3.1366795042 3.141249647 3.1492581344 3.151063701 3.1491109975 3.1461585584 
3.1389935759 3.1332706557 3.127739216 3.1226228637 3.1170604166 3.1121716425 3.0950671818 3.0913702874 3.0856690575 
3.078252966 3.067188368 3.0575921989 3.0482178594 3.041475952 3.0270949001 3.0898448935 3.1117337852 3.1296098172 
3.1392223785 3.1534333801 3.1603746413 3.1696602966 3.174016118 3.1831839335 3.1937154141 3.1987333626 3.2049894465 
3.2083725147 3.215811758 3.2187376312 3.2199819632 3.2222422149 3.2240638049 3.0877985158 3.093077312 3.0899192138 
3.0852650327 3.0773401536 3.0668070674 3.0572266747 3.0472410293 3.0400386859 3.042371026 3.2225773137 3.2168981618 
3.1257980466 3.219699547 3.1195228317 3.2234883795 3.2261455964 3.212911072 3.108323429 3.1044863832 3.2205682925 
3.0998665867 3.0920783895 3.0934633555 3.1146025624 3.2210871607 3.2231257612 3.224028659 3.1459392229 3.0932645057 
3.0952930565 3.0241310176 3.0282947348 3.0007327708 3.0012914974 2.9809215851 2.9917806929 3.0056344034 3.0379804092 
3.058826203 3.0470912481 3.0991736316 3.067538305 3.085134104 3.1045735087 3.1122092077 3.1251976536 3.1324884536 
3.1444361922 3.150225924 3.1560876526 3.1554471201 3.1512673786 3.1462841267 3.1381692789 3.1324126325 3.1263907141 
3.1207954696 3.1148786542 3.1097523017 3.0929477324 3.0893045207 3.0840837749 3.0765623016 3.0661847235 3.0564046957 
3.0478476636 3.0408573628 3.0285619101 3.092798715 3.1164022881 3.1318954828 3.1445664732 3.1507575083 3.1626756677 
3.1757167302 3.1828517056 3.191532557 3.2039138224 3.2101885487 3.21471872 3.2172545455 3.2241905834 3.226279909 
3.2270907609 3.2287931201 3.2296283477 3.0871566054 3.090852834 3.0903223351 3.0858416031 3.0782017055 3.0679218854 
3.0581960757 3.0485591361 3.0409953395 3.0431324036 3.2287844287 3.2252745349 3.1242883374 3.2273089073 3.1176143709 
3.2292195072 3.2231830092 3.2214161497 3.1060826503 3.1024189315 3.2276123976 3.0974287876 3.0913823529 3.0915388504 
3.1120860822 3.2278459036 3.2293155784 3.2297805632 3.083201819 3.0896677111 3.0934723337 3.0242067236 3.0303822898 
3.0018208733 3.003754805 2.984181102 2.9937921991 3.006316443 3.0395749462 3.0597697711 3.0488171309 3.0974135894 
3.0707626177 3.0884228917 3.1060203013 3.1150693162 3.1283319083 3.1378260875 3.1485818959 3.1551734529 3.1603677791 
3.1581217538 3.1521202863 3.1454415213 3.1367431683 3.1307418859 3.1247629005 3.1186371216 3.1129231802 3.1076255181 
3.0913141732 3.0876024104 3.0827569597 3.0752978312 3.0653492634 3.055744335 3.0476093271 3.040284471 3.0297129955 
3.0935997787 3.11756654 3.1322624496 3.1452935358 3.1551664026 3.1659412354 3.1773638059 3.1831994875 3.194385951 
3.208124763 3.2180108317 3.2217393798 3.2251617358 3.2318248122 3.2334441435 3.2340672134 3.2356191012 3.2390684964 
3.0910397412 3.0921489512 3.0907737508 3.0860371183 3.0783626905 3.0680217656 3.0583283352 3.048769529 3.0410093321 
3.0427030339 3.2357496324 3.2327332639 3.1222700929 3.2343291119 3.1157870528 3.2360029744 3.0819024581 3.2292738397 
3.1041874507 3.1006798785 3.2346818993 3.0953964904 3.0925866398 3.0926303538 3.1099898698 3.2349523094 3.2357880041 
3.1784564112 3.087260838 3.0919052362 3.0921422429 3.0230375473 3.0312210611 3.002207938 3.0042340893 2.985122088 
2.9948660917 3.0076322734 3.0401050724 3.06121685 3.0509152045 3.0958213945 3.0729487223 3.0913858287 3.1078237979 
3.117410533 3.1307724843 3.1412430462 3.1524150576 3.1598759581 3.1638869989 3.1602491132 3.1522792228 3.1440386887 
3.1352170233 3.1290882501 3.1230159661 3.1171085232 3.1112948659 3.1060259227 3.0897914109 3.0861318689 3.081525144 
3.074066985 3.0645129011 3.0548390915 3.0469832442 3.0394965052 3.0305113865 3.0943763945 3.1187153173 3.1330168574 
3.1460214893 3.1553418464 3.1669892915 3.1795490428 3.1866256528 3.198047233 3.2117519005 3.2233929178 3.229065326 
3.2324671408 3.2392618886 3.2408834305 3.2408778468 3.2420330039 3.250889978 3.090660691 3.0904963327 3.0891774227 
3.0839385522 3.0761949153 3.0661163415 3.0564748563 3.0472209385 3.0392491113 3.0410323358 3.2421985561 3.2403315288 
3.1207235739 3.2414819723 3.1141350884 3.2422643227 3.0882421844 3.2366105236 3.1026825209 3.0992321957 3.2413254701 
3.0936773585 3.0909047278 3.0907508669 3.1082549148 3.2415731046 3.2424713539 3.0899854817 3.0898182948 3.091711991 
3.0906886196 3.0212920927 3.0314438279 3.0026648945 3.0034247134 2.9849398069 2.9946312405 3.0078441261 3.0399073112 
3.0617297402 3.0521722881 3.0944228082 3.0742087279 3.0933569192 3.109546646 3.1196450022 3.1330283664 3.1443455435 
3.1552005047 3.1631837391 3.1668291754 3.1618467286 3.152040761 3.1426858683 3.1339750595 3.1278885126 3.121663437 
3.1159009415 3.1101665996 3.1047970651 3.0884351027 3.0849269443 3.0804966067 3.0731166113 3.0638018447 3.0540136723 
3.0463021962 3.0387193189 3.0308528655 3.0946829976 3.1190997377 3.133356735 3.1462970422 3.1560701139 3.1676108594 
3.1799690839 3.1878947281 3.1996620145 3.2141243388 3.2264535946 3.2337078313 3.2387484938 3.246133698 3.2476350516 
3.2476842586 3.248560658 3.1774423039 3.0873925237 3.0871712369 3.084799829 3.0797200344 3.0723176709 3.0626379516 
3.053102092 3.0442668762 3.0363457416 3.0381583834 3.2489195124 3.2477876718 3.1195924973 3.2482016087 3.1129284655 
3.246452018 3.0853301914 3.2430894481 3.1014699022 3.0981313031 3.2480312028 3.0921983165 3.086636109 3.0865419401 
3.106997883 3.2481276558 3.2487766855 3.085701857 3.0865956764 3.0879861446 3.0898800587 3.0198832363 3.0316141701 
3.0028990034 3.0030028734 2.9852094208 2.994438673 3.0078879913 3.0399412312 3.0616966507 3.0530394601 3.0935483361 
3.0750191027 3.0944558764 3.1105394904 3.1210922296 3.1345839018 3.146575385 3.1572796023 3.1657280538 3.1692782829 
3.1631929221 3.1517413964 3.1417725323 3.1332810543 3.1270480021 3.1207783976 3.1150102112 3.1091319907 3.1039599526 
3.0877954703 3.0843240549 3.0799023852 3.0725986904 3.063370637 3.0534836394 3.045851241 3.0382880426 3.0309881706 
3.0947445805 3.1191981151 3.133390145 3.146324258 3.1561775783 3.1677641274 3.1800797626 3.1887322033 3.2008307074 
3.2153871351 3.2281161508 3.2371794573 3.2430270425 3.251258371 3.2539462007 3.2539179206 3.2551683914 3.1372587016 
3.0842320039 3.083992328 3.0811703795 3.0763379042 3.0693110463 3.0597662157 3.0502504482 3.0417910028 3.0339452067 
3.0357216407 3.2551103426 3.2531549121 3.1187071611 3.2547821221 3.1122016357 3.2534072022 3.0823708179 3.2477373024 
3.1006603798 3.0973384976 3.2543285299 3.0914219974 3.0829712308 3.0831514229 3.1061388472 3.2544307385 3.2548745996 
3.0846401032 3.0830060687 3.084306103 3.0897417028 3.0192556636 3.0319315563 3.0030768313 3.0029838996 2.9854724067 
2.9944698611 3.0081481405 3.0401716384 3.0619337921 3.0534684802 3.093524234 3.0755512172 3.0951395748 3.1110449797 
3.121988715 3.1356143941 3.1482365336 3.1588034385 3.1675822234 3.1715156974 3.1646356407 3.1518232339 3.1414756869 
3.1332297497 3.1268122867 3.1205567837 3.1149114562 3.1092060793 3.1038178969 3.087713042 3.0842142062 3.0797939606 
3.0725387562 3.0632969375 3.0534269771 3.0457791154 3.0382306932 3.0309683946 3.0951429547 3.1193836358 3.1336529777 
3.1466152331 3.1564904223 3.1681561482 3.1802392887 3.1893620379 3.2017365947 3.2162805621 3.2292254022 3.239064068 
3.2457985644 3.2547507098 3.2580551391 3.2592383346 3.260200544 3.1395575149 3.0822060909 3.0821723595 3.0791898591 
3.0746127259 3.0678683795 3.0583325126 3.0488897567 3.0406051218 3.0328454194 3.0345669931 3.2605504813 3.2570519621 
3.1185893033 3.2593163366 3.1119614157 3.2588376359 3.0807038764 3.2507667739 3.1005295067 3.0972089185 3.2596882169 
3.0912565085 3.0809526555 3.081266754 3.1060856578 3.259741117 3.2606156043 3.0823429736 3.0814102717 3.0824723497 
3.0900033368 3.0190956227 3.0321880299 3.0032285304 3.0031970106 2.9858376782 2.9945675677 3.0084644825 3.0405038581 
3.0624084634 3.0535193009 3.0938051627 3.0757780206 3.0955583566 3.1114229921 3.1227576914 3.1362657238 3.1493279619 
3.1599659213 3.1687592353 3.1736742983 3.1663349707 3.1525486484 3.141833923 3.1339217036 3.1273754423 3.1210616789 
3.1152174894 3.1096429918 3.1042078434 3.0879825081 3.0844719567 3.0799816216 3.0727338054 3.0634481853 3.0536143598 
3.0459474461 3.0384047288 3.0307307492 3.0957821186 3.1197602275 3.1343799989 3.147342839 3.1572149103 3.1688736744 
3.1807745254 3.1901391066 3.2026892816 3.217067858 3.2301699808 3.2403691061 3.2473664475 3.2569533553 3.2608806114 
3.2626391917 3.2639737517 3.1400737127 3.0801713018 3.0802277188 3.0778601566 3.0734249764 3.0668010913 3.0573705487 
3.0481365803 3.0399339865 3.0322995302 3.0340185918 3.2645669662 3.259554103 3.1189689421 3.2623917585 3.1123310162 
3.2632929986 3.0782240255 3.252426404 3.1008557496 3.0972912479 3.263275947 3.0915523632 3.0795451662 3.0794304933 
3.1065969695 3.2634898318 3.2649840029 3.0797899577 3.0795386495 3.080163558 3.0906761663 3.0189852904 3.0324617573 
3.0033027257 3.0037686109 2.9863529926 2.9947876213 3.0088238511 3.040969649 3.0629739535 3.0534482423 3.0947005161 
3.0757192267 3.0953574744 3.1112044047 3.1228158034 3.1364900377 3.1497975774 3.1606167731 3.1693100676 3.1756071026 
3.1682347639 3.1538769901 3.1427299371 3.1351550958 3.1283937677 3.1221523634 3.1158394948 3.1104053505 3.1049623112 
3.0886675445 3.0851075435 3.0804968628 3.0732320653 3.0638168336 3.0539834759 3.0462509042 3.0387104241 3.0305067724 
3.0965477532 3.1203821791 3.1351826262 3.148220528 3.1581682585 3.1698150961 3.1816151108 3.1911742917 3.2038190358 
3.2179713428 3.2311623204 3.2415527614 3.2485509544 3.2581976799 3.2626149134 3.2647728779 3.266369063 3.1366140695 
3.0778792881 3.0776650588 3.0760828458 3.0717299682 3.0651451078 3.0559543536 3.0469895933 3.0389001185 3.0315006787 
3.0332940694 3.2670931184 3.261128579 3.1197249037 3.2642880198 3.1130909215 3.2662457432 3.0763833605 3.2535106631 
3.1015233881 3.0981903968 3.2654537901 3.0923969044 3.0775904404 3.0773239175 3.1074089251 3.265797581 3.2677132248 
3.0784617647 3.0776897051 3.0778722269 3.091678809 3.0190261738 3.0327452903 3.0033830249 3.0047838967 2.9870326992 
2.995146627 3.0092705075 3.0415650818 3.0636463387 3.0529922237 3.0957004634 3.0751918603 3.0948550885 3.1107114296 
3.1225946775 3.1361877505 3.1497626218 3.1606307736 3.1698146155 3.1773240711 3.1702549266 3.1557492135 3.1439995548 
3.1366298564 3.1296388984 3.1235733947 3.1168052843 3.111499023 3.1060154918 3.0895932066 3.0859826809 3.0812556589 
3.0739514548 3.0643543597 3.0544900774 3.0466527393 3.0391114482 3.0302961084 3.0975101909 3.121221047 3.1363130574 
3.1494197602 3.1593478022 3.1710361652 3.1827491486 3.1925023655 3.2052669961 3.2191111204 3.2323592131 3.2428171274 
3.2496636197 3.2591620865 3.2640646838 3.2662758911 3.2678840589 3.126508786 3.0756295383 3.0754607323 3.0737958923 
3.0695719944 3.0630968361 3.0542808076 3.0455886244 3.0376821085 3.0306168684 3.0324618333 3.268729135 3.2623575346 
3.1207837425 3.2656529329 3.1141415494 3.2679783642 3.0744040792 3.254476495 3.1024705669 3.0990874321 3.2669290753 
3.0934463659 3.075285915 3.0751358326 3.1085476148 3.267275225 3.2693121239 3.0775937712 3.0754537552 3.0755012458 
3.0927526275 3.019525671 3.0331254763 3.0034804059 3.0060375156 2.9874313115 2.9955190124 3.0097807059 3.0423808588 
3.0644689866 3.052368031 3.0968153408 3.0744347595 3.093998147 3.109967652 3.1220975614 3.1356358337 3.1491972204 
3.1608321029 3.1697242675 3.178451455 3.1721253484 3.1580251454 3.1455615489 3.1382385047 3.1310873856 3.1250540774 
3.1181530578 3.1127317618 3.1072351827 3.0905923718 3.08692554 3.0820595629 3.0747036526 3.064922873 3.0550390773 
3.0470664102 3.0395466523 3.0299626574 3.0986890541 3.1223287502 3.1377726107 3.1509607377 3.1608987936 3.1726209758 
3.1842760765 3.1941759551 3.2071254664 3.2206362508 3.2338562495 3.2444692596 3.2509932095 3.2602500769 3.2654064931 
3.2676073931 3.2690877173 3.0997581355 3.0732208041 3.0730916483 3.0720583333 3.0682238949 3.0622144596 3.0535864702 
3.0450995548 3.0374253709 3.0305668616 3.0326863156 3.269999857 3.2634999669 3.1221669142 3.2668594387 3.1153821509 
3.2694897375 3.0734734612 3.2555725076 3.1034842013 3.1001098252 3.268194399 3.0945885385 3.0734136953 3.0734814581 
3.1098426087 3.2685410068 3.270482556 3.0722859735 3.0729599414 3.0727549667 3.0938815111 3.0206140288 3.0336857442 
3.003721073 3.0076889732 2.9881442843 2.9961723101 3.0104096183 3.0434455956 3.0655348221 3.0515042539 3.0979996721 
3.0735317389 3.0929475165 3.1090628001 3.1215083849 3.1347785448 3.1485978373 3.1604319011 3.1712332716 3.1790235535 
3.1739432479 3.1607178968 3.147493076 3.1399535331 3.1326239512 3.1265065066 3.1195737425 3.1140934545 3.1085101224 
3.0916491294 3.0879671034 3.0829070307 3.075519812 3.0655329748 3.0556326826 3.0474780455 3.0400146716 3.0294184352 
3.100165422 3.1237804158 3.1396272696 3.1529231827 3.1628453062 3.1746167814 3.1862558721 3.1962651702 3.2094407098 
3.2226160542 3.2357821149 3.246421957 3.2527030021 3.2616714739 3.2670834575 3.269230517 3.2704188774 3.0667707271 
3.0741789297 3.0738132827 3.0730903187 3.0695721889 3.0637384007 3.0549041316 3.0465225596 3.0389170075 3.0321678146 
3.0343198225 3.2715358 3.2649516574 3.123626944 3.2683826438 3.1166812754 3.2731350322 3.0721762802 3.2570130155 
3.104704927 3.101208163 3.2696844658 3.0958243899 3.0743250402 3.0744657752 3.1112281804 3.2699946523 3.2716160766 
3.0679761 3.0732361259 3.0740824043 3.0950098453 3.0218293004 3.034459594 3.0041790841 3.0095635465 2.9891752658 
2.9971453398 3.0112321382 3.0446739274 3.0667579883 3.050472696 3.0992774285 3.0723193288 3.0915757664 3.1078462517 
3.1204008254 3.1335612824 3.1473280631 3.1598325286 3.1703312852 3.1796718194 3.1758878599 3.1639721959 3.149824486 
3.1417198137 3.1341359042 3.1278731898 3.1210557716 3.1151903719 3.1097894924 3.0928052715 3.089130198 3.0838401555 
3.0764273642 3.0662265064 3.0562557948 3.0478935303 3.0404955514 3.028758535 3.1017627655 3.1254757122 3.1417488807 
3.1551843249 3.1651351525 3.1768621569 3.1885756076 3.1987153754 3.2120084123 3.2249370905 3.2378913982 3.2488323021 
3.2549080957 3.2635732898 3.2694606562 3.2718603929 3.272872373 3.0754115264 3.076799686 3.0765653579 3.0757049871 
3.0720597582 3.065915676 3.0570311775 3.0488555404 3.0410499227 3.0343675944 3.0367232082 3.2735455824 3.2669369959 
3.1250933432 3.2704963565 3.1181135108 3.2701186591 3.0748658221 3.2589655179 3.1058850068 3.1023258846 3.2718813713 
3.0971572735 3.0770498702 3.0771110999 3.1125600833 3.2722904288 3.2878463758 3.0729189789 3.075529765 3.0769154562 
3.0961965534 3.0224873208 3.0340084202 3.0035821204 3.0110896388 2.989521244 2.9976686257 3.0117603484 3.0447003568 
3.0675410999 3.048673966 3.1004708519 3.0697715021 3.0892136808 3.1056351693 3.1183110793 3.1315854193 3.1446963816 
3.1588302324 3.1689359645 3.1798881187 3.1779330499 3.167657409 3.1527369524 3.1436767756 3.1357445096 3.1295643327 
3.1225719712 3.1171502713 3.111401084 3.0939018732 3.0902323263 3.0848138153 3.0772597322 3.0668323152 3.0566974328 
3.0481878247 3.0407560828 3.0279751724 3.1031066302 3.1270960849 3.143814458 3.1572598606 3.1673756805 3.1792040034 
3.1909968247 3.2013145049 3.2147112534 3.2276601748 3.2410495847 3.2514000464 3.2578462183 3.2667231198 3.2739355778 
3.2753657687 3.2758014222 3.0712907146 3.0782057627 3.0779840087 3.0773718517 3.0735181506 3.0669425749 3.0583866123 
3.0504981789 3.0424506329 3.0358246502 3.0386060035 3.2782794513 3.2704433242 3.1266581089 3.2747191446 3.1195667272 
3.055521919 3.0764518752 3.2617331994 3.1074331366 3.1035296339 3.2755750843 3.098405085 3.0784132854 3.0786482476 
3.1144736192 3.2758386698 3.1843652028 3.0743011291 3.076681848 3.0782944219 3.096934906 3.0225221788 3.032082005 
3.0014876272 3.0068666425 2.9876750295 2.9971359929 3.0117901451 3.0448783686 3.0680985038 3.0455312173 3.1008377674 
3.0674747038 3.0868142391 3.1033614505 3.1152977457 3.1289994256 3.1414698988 3.158691451 3.1699428112 3.1816472604 
3.1823798214 3.1723610515 3.156935036 3.1458169098 3.1373797747 3.1307727187 3.1238850475 3.1181934725 3.1128803583 
3.0948559481 3.0910139391 3.0855714652 3.0781263294 3.0671888478 3.0567892544 3.0480485423 3.0405578893 3.0261934043 
3.1051749037 3.1290389134 3.1462746293 3.1600676284 3.1702349475 3.1821622317 3.19375136 3.2048312183 3.2187333852 
3.2322390967 3.2460716518 3.259471073 3.2633648645 3.2714594798 3.2772146985 3.2761900062 3.2761336001 3.0796744919 
3.079675264 3.0797047762 3.0794585761 3.0747047712 3.0684393825 3.0594880313 3.051705841 3.0435878047 3.0366825849 
3.0401479103 3.2129434729 3.2748655229 3.127687789 3.2774569495 3.1208292251 3.0825114313 3.0778083015 3.2665226271 
3.1080446456 3.1040630576 3.2773399527 3.0991168265 3.0805647954 3.0810682959 3.1159447977 3.2763851273 3.0706089803 
3.0781816557 3.0782382917 3.0801370013 3.0975766465 3.0248593485 3.0338739767 3.0044832442 3.0080763033 2.9896054097 
3.0008449966 3.015863413 3.0522476727 3.0716566677 3.0476524378 3.1017232581 3.0656754516 3.0864004524 3.1014234906 
3.1157054559 3.1286029893 3.1417179006 3.1622543121 3.1826901077 3.186952923 3.185350962 3.1748023409 3.1585298932 
3.1460575761 3.1372658771 3.1306391419 3.1228621476 3.1160398003 3.1110212344 3.0949300552 3.0924083798 3.0865461591 
3.0774671627 3.0676725883 3.0565153724 3.0472834518 3.0388756329 3.0244466436 3.1056537226 3.131151132 3.1527222263 
3.167025647 3.1761564911 3.1920857541 3.2009031678 3.2111981915 3.2293499097 3.2408790298 3.2570007871 3.2661290334 