# vtk DataFile Version 4.2
vtk output
ASCII
DATASET POLYDATA
POINTS 15896 float
1957.61 -3237.18 5800 1960.37 -3250.18 5800 3337.59 -3250.14 5800 
3340.41 -3237.13 5800 1954.49 -3224.18 5800 3343.22 -3224.13 5800 
1949.72 -3211.18 5800 3346.03 -3211.13 5800 1946.76 -3198.18 5800 
3348.85 -3198.13 5800 1944.73 -3185.18 5800 3351.66 -3185.13 5800 
1938.86 -3172.18 5800 1942.82 -3179.43 5800 3354.48 -3172.13 5800 
1931.85 -3159.18 5800 3357.29 -3159.13 5800 1927.25 -3146.18 5800 
3360.1 -3146.13 5800 1923.52 -3133.17 5800 3362.55 -3133.13 5800 
1917.84 -3120.17 5800 3363.88 -3125.39 5800 3364.77 -3120.12 5800 
1911.77 -3107.17 5800 1913.83 -3110.97 5800 3366.97 -3107.12 5800 
1906.15 -3094.17 5800 3369.17 -3094.12 5800 1900.82 -3081.17 5800 
3371.38 -3081.12 5800 1895.14 -3068.17 5800 3373.58 -3068.12 5800 
1889.47 -3055.17 5800 3375.78 -3055.12 5800 1883.79 -3042.17 5800 
1884.83 -3044.54 5800 3377.98 -3042.12 5800 1878.12 -3029.17 5800 
3380.18 -3029.12 5800 1872.44 -3016.17 5800 3382.39 -3016.12 5800 
1866.77 -3003.17 5800 3384.78 -3003.11 5800 1861.09 -2990.17 5800 
3387.24 -2990.11 5800 1855.42 -2977.17 5800 1855.83 -2978.12 5800 
3390.2 -2977.11 5800 1849.74 -2964.16 5800 3392.89 -2966.96 5800 
3393.65 -2964.11 5800 1844.07 -2951.16 5800 3397.09 -2951.11 5800 
1838.39 -2938.16 5800 3400.54 -2938.11 5800 1832.72 -2925.16 5800 
3403.99 -2925.11 5800 1827.04 -2912.16 5800 3407.44 -2912.11 5800 
1807.99 -2899.16 5800 1826.84 -2911.97 5800 3410.89 -2899.11 5800 
1793.7 -2886.16 5800 1797.84 -2894.07 5800 3414.34 -2886.1 5800 
1793.48 -2873.16 5800 3417.78 -2873.1 5800 1793.88 -2860.16 5800 
3421.23 -2860.1 5800 1794.26 -2847.16 5800 3421.9 -2857.6 5800 
3424.68 -2847.1 5800 1794.64 -2834.16 5800 3428.13 -2834.1 5800 
1795 -2821.16 5800 3431.58 -2821.1 5800 1795.35 -2808.15 5800 
3435.03 -2808.1 5800 1795.69 -2795.15 5800 3438.48 -2795.1 5800 
1796.02 -2782.15 5800 3441.93 -2782.1 5800 1796.34 -2769.15 5800 
3445.37 -2769.09 5800 1796.66 -2756.15 5800 3448.82 -2756.09 5800 
1796.93 -2743.15 5800 3450.91 -2748.24 5800 3452.27 -2743.09 5800 
1797.23 -2730.15 5800 3455.72 -2730.09 5800 1797.52 -2717.15 5800 
3459.17 -2717.09 5800 1797.82 -2704.15 5800 3462.62 -2704.09 5800 
1797.85 -2702.59 5800 1798.11 -2691.15 5800 3466.07 -2691.09 5800 
1798.41 -2678.14 5800 3469.52 -2678.09 5800 1798.7 -2665.14 5800 
3472.96 -2665.09 5800 1799 -2652.14 5800 3476.41 -2652.08 5800 
1799.29 -2639.14 5800 3479.86 -2639.08 5800 1799.59 -2626.14 5800 
3479.92 -2638.87 5800 3483.31 -2626.08 5800 1799.88 -2613.14 5800 
3486.76 -2613.08 5800 1800.18 -2600.14 5800 3490.21 -2600.08 5800 
1800.47 -2587.14 5800 3493.66 -2587.08 5800 1800.77 -2574.14 5800 
3497.1 -2574.08 5800 1801.06 -2561.14 5800 3500.55 -2561.08 5800 
1801.36 -2548.13 5800 3504 -2548.08 5800 1801.65 -2535.13 5800 
3507.45 -2535.07 5800 1801.95 -2522.13 5800 3508.93 -2529.51 5800 
3510.02 -2522.07 5800 1802.24 -2509.13 5800 3508.93 -2520.23 5800 
3501.45 -2509.07 5800 1802.53 -2496.13 5800 3494.29 -2496.07 5800 
1802.83 -2483.13 5800 3486.12 -2483.07 5800 1803.25 -2470.13 5800 
3479.93 -2473.22 5800 3477.95 -2470.07 5800 1803.7 -2457.13 5800 
3469.79 -2457.07 5800 1804.15 -2444.13 5800 3461.62 -2444.07 5800 
1804.59 -2431.12 5800 3453.45 -2431.07 5800 1805.07 -2418.12 5800 
3450.93 -2427.06 5800 3445.28 -2418.07 5800 1805.55 -2405.12 5800 
3437.11 -2405.07 5800 1806.02 -2392.12 5800 3428.95 -2392.07 5800 
1806.5 -2379.12 5800 3421.93 -2380.91 5800 3420.78 -2379.06 5800 
1806.98 -2366.12 5800 3412.61 -2366.06 5800 1807.46 -2353.12 5800 
3404.44 -2353.06 5800 1807.94 -2340.12 5800 3396.28 -2340.06 5800 
1808.42 -2327.12 5800 3392.94 -2329.06 5800 3392.55 -2327.06 5800 
1808.9 -2314.12 5800 3392.9 -2314.06 5800 1809.38 -2301.11 5800 
3392.94 -2312.79 5800 3393.26 -2301.06 5800 1809.86 -2288.11 5800 
3393.61 -2288.06 5800 1810.33 -2275.11 5800 3393.96 -2275.06 5800 
1810.81 -2262.11 5800 3394.31 -2262.06 5800 1811.29 -2249.11 5800 
3394.67 -2249.06 5800 1811.77 -2236.11 5800 3395.02 -2236.05 5800 
1812.25 -2223.11 5800 3395.37 -2223.05 5800 1812.73 -2210.11 5800 
3395.72 -2210.05 5800 1813.21 -2197.11 5800 3396.07 -2197.05 5800 
1813.69 -2184.11 5800 3396.43 -2184.05 5800 1814.17 -2171.1 5800 
3396.78 -2171.05 5800 1814.64 -2158.1 5800 3397.13 -2158.05 5800 
1815.12 -2145.1 5800 3397.48 -2145.05 5800 1815.6 -2132.1 5800 
3397.84 -2132.05 5800 1816.08 -2119.1 5800 3398.19 -2119.05 5800 
1816.56 -2106.1 5800 3398.54 -2106.04 5800 1817.04 -2093.1 5800 
3398.89 -2093.04 5800 1817.52 -2080.1 5800 3399.25 -2080.04 5800 
1818 -2067.1 5800 3399.6 -2067.04 5800 1818.48 -2054.1 5800 
3399.95 -2054.04 5800 1818.95 -2041.09 5800 3400.3 -2041.04 5800 
1819.43 -2028.09 5800 3400.65 -2028.04 5800 1819.91 -2015.09 5800 
3401.01 -2015.04 5800 1820.39 -2002.09 5800 3401.36 -2002.04 5800 
1818.36 -1989.09 5800 3401.71 -1989.04 5800 1815.45 -1976.09 5800 
3402.06 -1976.03 5800 1812.54 -1963.09 5800 3402.3 -1963.03 5800 
1809.63 -1950.09 5800 3402.37 -1950.03 5800 1806.72 -1937.09 5800 
3402.39 -1937.03 5800 1803.81 -1924.09 5800 3402.41 -1924.03 5800 
1801.47 -1911.08 5800 3402.43 -1911.03 5800 1805.45 -1898.08 5800 
3402.45 -1898.03 5800 1807.88 -1885.08 5800 3402.47 -1885.03 5800 
1810.36 -1872.08 5800 3402.49 -1872.03 5800 1813.86 -1859.08 5800 
3402.51 -1859.03 5800 1817.36 -1846.08 5800 3402.53 -1846.02 5800 
1820.86 -1833.08 5800 3402.55 -1833.02 5800 1824.36 -1820.08 5800 
3402.57 -1820.02 5800 1826.92 -1810.56 5800 1827.86 -1807.08 5800 
3402.59 -1807.02 5800 1831.36 -1794.07 5800 3402.61 -1794.02 5800 
1834.86 -1781.07 5800 3402.62 -1781.02 5800 1838.36 -1768.07 5800 
3402.64 -1768.02 5800 1841.86 -1755.07 5800 3402.66 -1755.02 5800 
1845.36 -1742.07 5800 3402.68 -1742.02 5800 1848.86 -1729.07 5800 
3402.7 -1729.02 5800 1852.36 -1716.07 5800 3402.72 -1716.01 5800 
1855.86 -1703.07 5800 3402.74 -1703.01 5800 1855.93 -1702.79 5800 
1859.36 -1690.07 5800 3402.76 -1690.01 5800 1862.86 -1677.06 5800 
3402.78 -1677.01 5800 1866.36 -1664.06 5800 3402.8 -1664.01 5800 
1869.86 -1651.06 5800 3402.7 -1651.01 5800 1873.38 -1638.06 5800 
3400.4 -1638.01 5800 1876.91 -1625.06 5800 3394.92 -1625.01 5800 
1880.41 -1612.06 5800 3392.99 -1621.19 5800 3388.36 -1612.01 5800 
1883.98 -1599.06 5800 3381.81 -1599.01 5800 1884.94 -1595.58 5800 
1887.58 -1586.06 5800 3375.25 -1586.01 5800 1891.16 -1573.06 5800 
3368.7 -1573 5800 1894.75 -1560.05 5800 2486.53 -1560.03 5800 
2493.97 -1568.41 5800 2522.97 -1564.53 5800 2551.97 -1560.64 5800 
2556.55 -1560.03 5800 3364 -1563.68 5800 3362.14 -1560 5800 
1898.34 -1547.05 5800 2478.9 -1547.03 5800 2580.97 -1556.76 5800 
2609.97 -1550.98 5800 2618.7 -1547.03 5800 3355.58 -1547 5800 
1901.93 -1534.05 5800 2475.41 -1534.03 5800 2638.97 -1537.84 5800 
2647.25 -1534.03 5800 3349.03 -1534 5800 1905.51 -1521.05 5800 
2472.3 -1521.03 5800 2667.97 -1524.52 5800 2675.28 -1521.02 5800 
3343.28 -1521 5800 1909.1 -1508.05 5800 2469.19 -1508.03 5800 
2696.98 -1510.65 5800 2702.47 -1508.02 5800 3339.99 -1508 5800 
1912.69 -1495.05 5800 2466.08 -1495.03 5800 2725.98 -1496.78 5800 
2729.66 -1495.02 5800 3337.61 -1495 5800 1913.95 -1490.49 5800 
1916.28 -1482.05 5800 2462.97 -1482.03 5800 2464.97 -1490.38 5800 
2754.98 -1482.91 5800 2756.85 -1482.02 5800 3335.26 -1482 5800 
1919.74 -1469.05 5800 2459.86 -1469.03 5800 2783.98 -1469.04 5800 
2784.04 -1469.02 5800 3335 -1480.58 5800 3332.91 -1469 5800 
1921.28 -1456.05 5800 2456.75 -1456.03 5800 2811.23 -1456.02 5800 
3330.55 -1456 5800 1922.46 -1443.04 5800 2450.61 -1443.03 5800 
2812.99 -1455.18 5800 2838.42 -1443.01 5800 3328.2 -1443 5800 
1923.63 -1430.04 5800 2438.33 -1430.03 5800 2841.99 -1441.31 5800 
2865.61 -1430.01 5800 3325.85 -1430 5800 1924.81 -1417.04 5800 
2426.05 -1417.03 5800 2435.97 -1427.53 5800 2870.99 -1428.68 5800 
2888.73 -1417.01 5800 3323.77 -1416.99 5800 1925.99 -1404.04 5800 
2413.77 -1404.02 5800 2899.99 -1406.01 5800 2901.39 -1404.01 5800 
3322.68 -1403.99 5800 1927.16 -1391.04 5800 2401.5 -1391.02 5800 
2406.98 -1396.83 5800 2910.5 -1391.01 5800 3321.77 -1390.99 5800 
1928.34 -1378.04 5800 2389.22 -1378.02 5800 2917.08 -1378.01 5800 
3320.99 -1377.99 5800 1929.52 -1365.04 5800 2376.94 -1365.02 5800 
2377.98 -1366.12 5800 2922.05 -1365 5800 3320.32 -1364.99 5800 
1930.7 -1352.04 5800 2364.35 -1352.02 5800 2928.85 -1352 5800 
3319.75 -1351.99 5800 1931.87 -1339.04 5800 2351.15 -1339.02 5800 
2929 -1351.73 5800 2937.72 -1339 5800 3319.24 -1338.99 5800 
1933.05 -1326.04 5800 2336.76 -1326.02 5800 2348.98 -1336.94 5800 
2944.27 -1326 5800 3318.79 -1325.99 5800 1934.23 -1313.03 5800 
2322.2 -1313.02 5800 2949.84 -1313 5800 3318.39 -1312.99 5800 
1935.33 -1300.03 5800 2307.65 -1300.02 5800 2319.98 -1311.04 5800 
2956.84 -1300 5800 3318.4 -1299.99 5800 1936.08 -1287.03 5800 
2293.09 -1287.02 5800 2958 -1297.83 5800 2964.86 -1287 5800 
3318.69 -1286.98 5800 1936.8 -1274.03 5800 2278.54 -1274.02 5800 
2290.98 -1285.13 5800 2971.31 -1274 5800 3318.99 -1273.98 5800 
1937.52 -1261.03 5800 2264.3 -1261.02 5800 2977.5 -1260.99 5800 
3319.28 -1260.98 5800 1938.24 -1248.03 5800 2257.43 -1248.02 5800 
2261.98 -1258.64 5800 2984.35 -1247.99 5800 3319.58 -1247.98 5800 
1938.96 -1235.03 5800 2253.05 -1235.02 5800 2987.01 -1242.96 5800 
2991.81 -1234.99 5800 3319.87 -1234.98 5800 1939.8 -1222.03 5800 
2251.52 -1222.02 5800 2998.24 -1221.99 5800 3320.21 -1221.98 5800 
1940.62 -1209.03 5800 2250.19 -1209.02 5800 3004.92 -1208.99 5800 
3320.57 -1208.98 5800 1941.36 -1196.03 5800 2248.92 -1196.01 5800 
3011.78 -1195.99 5800 3320.93 -1195.98 5800 3741.04 -1204.1 5800 
3736.06 -1195.96 5800 3770.04 -1199.76 5800 3779.87 -1195.96 5800 
1942.26 -1183.02 5800 2247.64 -1183.01 5800 3016.01 -1187.96 5800 
3018.89 -1182.99 5800 3321.3 -1182.98 5800 3729.08 -1182.96 5800 
3799.04 -1188.56 5800 3817.95 -1182.96 5800 1942.98 -1178.21 5800 
1944.33 -1170.02 5800 2246.37 -1170.01 5800 3025.49 -1169.99 5800 
3321.67 -1169.98 5800 3721.6 -1169.96 5800 3828.04 -1179.22 5800 
3857.04 -1176.06 5800 3886.04 -1173.02 5800 3915.04 -1169.98 5800 
[...]
POINT_DATA 15896
SCALARS Pressure double
LOOKUP_TABLE default
3.091913306 3.091913306 3.091913306 3.091913306 3.091913306 3.091913306 3.091913306 3.091913306 3.091913306 
3.091913306 3.091913306 3.091913306 3.091913306 3.091913306 3.091913306 3.091913306 3.091913306 3.091913306 
3.091913306 3.091913306 3.091913306 3.091913306 3.091913306 3.091913306 3.091913306 3.091913306 3.091913306 
3.091913306 3.091913306 3.091913306 3.091913306 3.091913306 3.091913306 3.091913306 3.091913306 3.091913306 
3.091913306 3.091913306 3.091913306 3.091913306 3.091913306 3.091913306 3.091913306 3.091913306 3.091913306 
3.091913306 3.091913306 3.091913306 3.091913306 3.091913306 3.091913306 3.091913306 3.091913306 3.091913306 
3.091913306 3.091913306 3.091913306 3.091913306 3.091913306 3.091913306 3.091913306 3.091913306 3.091913306 
3.091913306 3.091913306 3.091913306 3.091913306 3.091913306 3.091913306 3.091913306 3.091913306 3.091913306 
3.091913306 3.091913306 3.091913306 3.091913306 3.091913306 3.091913306 3.091913306 3.091913306 3.091913306 
3.091913306 3.091913306 3.091913306 3.091913306 3.091913306 3.091913306 3.091913306 3.091913306 3.091913306 
3.091913306 3.091913306 3.091913306 3.091913306 3.091913306 3.091913306 3.091913306 3.091913306 3.091913306 
3.091913306 3.091913306 3.091913306 3.091913306 3.091913306 3.091913306 3.091913306 3.091913306 3.091913306 
3.091913306 3.091913306 3.091913306 3.091913306 3.091913306 3.091913306 3.091913306 3.091913306 3.091913306 
3.091913306 3.091913306 3.091913306 3.091913306 3.091913306 3.091913306 3.091913306 3.091913306 3.091913306 
3.091913306 3.091913306 3.091913306 3.091913306 3.091913306 3.091913306 3.091913306 3.091913306 3.091913306 
3.091913306 3.091913306 3.091913306 3.091913306 3.091913306 3.091913306 3.091913306 3.091913306 3.091913306 
3.091913306 3.091913306 3.091913306 3.091913306 3.091913306 3.091913306 3.091913306 3.091913306 3.091913306 
3.091913306 3.091913306 3.091913306 3.091913306 3.091913306 3.091913306 3.091913306 3.091913306 3.091913306 
3.091913306 3.091913306 3.091913306 3.091913306 3.091913306 3.091913306 3.091913306 3.091913306 3.091913306 
3.091913306 3.091913306 3.091913306 3.091913306 3.091913306 3.091913306 3.091913306 3.091913306 3.091913306 
3.091913306 3.091913306 3.091913306 3.091913306 3.091913306 3.091913306 3.091913306 3.091913306 3.091913306 
3.091913306 3.091913306 3.091913306 3.091913306 3.091913306 3.091913306 3.091913306 3.091913306 3.091913306 
3.091913306 3.091913306 3.091913306 3.091913306 3.091913306 3.091913306 3.091913306 3.091913306 3.091913306 
3.091913306 3.091913306 3.091913306 3.091913306 3.091913306 3.091913306 3.091913306 3.091913306 3.091913306 
3.091913306 3.091913306 3.091913306 3.091913306 3.091913306 3.091913306 3.091913306 3.091913306 3.091913306 
3.091913306 3.091913306 3.091913306 3.091913306 3.091913306 3.091913306 3.091913306 3.091913306 3.091913306 
3.091913306 3.091913306 3.091913306 3.091913306 3.091913306 3.091913306 3.091913306 3.091913306 3.091913306 
3.091913306 3.091913306 3.091913306 3.091913306 3.091913306 3.091913306 3.091913306 3.091913306 3.091913306 
3.091913306 3.091913306 3.091913306 3.091913306 3.091913306 3.091913306 3.091913306 3.091913306 3.091913306 
3.091913306 3.091913306 3.091913306 3.091913306 3.091913306 3.091913306 3.091913306 3.091913306 3.091913306 
3.091913306 3.091913306 3.091913306 3.091913306 3.091913306 3.091913306 3.091913306 3.091913306 3.091913306 
3.091913306 3.091913306 3.091913306 3.091913306 3.091913306 3.0979285117 3.0979285117 3.0979285117 3.0979285117 
3.0979285117 3.091913306 3.091913306 3.091913306 3.0979285117 3.0979285117 3.0979285117 3.0979285117 3.091913306 
3.091913306 3.0979285117 3.0979285117 3.0979285117 3.091913306 3.091913306 3.0979285117 3.0979285117 3.0979285117 
3.091913306 3.091913306 3.0979285117 3.0979285117 3.0979285117 3.091913306 3.091913306 3.0979285117 3.0979285117 
3.0979285117 3.091913306 3.091913306 3.091913306 3.0979285117 3.0979285117 3.0979285117 3.0979285117 3.091913306 
3.091913306 3.0979285117 3.0979285117 3.0979285117 3.091913306 3.091913306 3.091913306 3.0979285117 3.0979285117 
3.091913306 3.091913306 3.0979285117 3.0979285117 3.0979285117 3.091913306 3.091913306 3.0979285117 3.0979285117 
3.0979285117 3.091913306 3.091913306 3.0979285117 3.0979285117 3.0979285117 3.0979285117 3.091913306 3.091913306 
3.0979285117 3.0979285117 3.0979285117 3.091913306 3.091913306 3.0979285117 3.0979285117 3.0979285117 3.091913306 
3.091913306 3.0979285117 3.0979285117 3.091913306 3.091913306 3.0979285117 3.0979285117 3.0979285117 3.091913306 
3.091913306 3.0979285117 3.0979285117 3.091913306 3.091913306 3.0979285117 3.0979285117 3.0979285117 3.091913306 
3.091913306 3.0979285117 3.0979285117 3.0979285117 3.091913306 3.091913306 3.0979285117 3.0979285117 3.091913306 
3.091913306 3.0979285117 3.0979285117 3.0979285117 3.091913306 3.091913306 3.0979285117 3.0979285117 3.0979285117 
3.091913306 3.091913306 3.0979285117 3.0979285117 3.0979285117 3.091913306 3.091913306 3.0979285117 3.0979285117 
3.091913306 3.091913306 3.0979285117 3.0979285117 3.0979285117 3.091913306 3.091913306 3.0979285117 3.0979285117 
3.0979285117 3.091913306 3.091913306 3.0979285117 3.0979285117 3.091913306 3.091913306 3.0979285117 3.0979285117 
3.091913306 3.091913306 3.0979285117 3.0979285117 3.091913306 3.0858981002 3.0858981002 3.0858981002 3.0858981002 
3.091913306 3.0979285117 3.0979285117 3.0979285117 3.091913306 3.0858981002 3.0858981002 3.0858981002 3.091913306 
3.091913306 3.0979285117 3.0979285117 3.091913306 3.0858981002 3.0858981002 3.0858981002 3.0858981002 3.0858981002 
3.0858981002 3.091913306 3.0979285117 3.0979285117 3.091913306 3.0858981002 3.0858981002 3.0858981002 3.0858981002 
3.0858981002 3.091913306 3.0979285117 3.0979285117 3.091913306 3.0858981002 3.0858981002 3.0858981002 3.0858981002 
3.0858981002 3.0858981002 3.091913306 3.0979285117 3.0979285117 3.0979285117 3.091913306 3.0858981002 3.0858981002 
3.0858981002 3.0858981002 3.091913306 3.0979285117 3.0979285117 3.091913306 3.0858981002 3.0858981002 3.091913306 
3.0979285117 3.1039437175 3.1039437175 3.1039437175 3.1039437175 3.0979285117 3.091913306 3.0858981002 3.0858981002 
3.0858981002 3.091913306 3.0979285117 3.1039437175 3.1039437175 3.1039437175 3.1039437175 3.0979285117 3.091913306 
3.0858981002 3.0858981002 3.0858981002 3.0858981002 3.0858981002 3.0858981002 3.091913306 3.0979285117 3.1039437175 
3.1039437175 3.1039437175 3.0979285117 3.091913306 3.0858981002 3.0858981002 3.0858981002 3.0858981002 3.0858981002 
3.0858981002 3.0858981002 3.091913306 3.0979285117 3.0979285117 3.1039437175 3.1039437175 3.1039437175 3.1039437175 
3.0979285117 3.091913306 3.0858981002 3.0858981002 3.0858981002 3.0858981002 3.0858981002 3.091913306 3.0979285117 
3.1039437175 3.1039437175 3.1039437175 3.1039437175 3.0979285117 3.091913306 3.0858981002 3.0858981002 3.0858981002 
3.0858981002 3.0858981002 3.0858981002 3.0858981002 3.091913306 3.091913306 3.0979285117 3.1039437175 3.1039437175 
3.1039437175 3.0979285117 3.091913306 3.0858981002 3.0858981002 3.0858981002 3.0858981002 3.0858981002 3.0858981002 
3.0858981002 3.091913306 3.0979285117 3.1039437175 3.1039437175 3.1039437175 3.0979285117 3.091913306 3.0858981002 
3.0858981002 3.0858981002 3.0858981002 3.0858981002 3.091913306 3.0979285117 3.1039437175 3.1039437175 3.0979285117 
3.091913306 3.0858981002 3.0858981002 3.0858981002 3.0858981002 3.0858981002 3.0858981002 3.091913306 3.0979285117 
3.1039437175 3.1039437175 3.1039437175 3.0979285117 3.091913306 3.0858981002 3.0858981002 3.0858981002 3.0858981002 
3.0858981002 3.0858981002 3.0858981002 3.091913306 3.0979285117 3.1039437175 3.1039437175 3.1039437175 3.0979285117 
3.0979285117 3.091913306 3.0858981002 3.0858981002 3.0858981002 3.0858981002 3.0858981002 3.0858981002 3.0858981002 
3.091913306 3.0979285117 3.0979285117 3.1039437175 3.1039437175 3.1039437175 3.0979285117 3.091913306 3.0858981002 
3.0858981002 3.0858981002 3.0858981002 3.0858981002 3.091913306 3.091913306 3.0979285117 3.1039437175 3.1039437175 
3.1039437175 3.0979285117 3.091913306 3.0858981002 3.0858981002 3.0858981002 3.0858981002 3.0858981002 3.0858981002 
3.0858981002 3.091913306 3.0979285117 3.1039437175 3.1039437175 3.1039437175 3.0979285117 3.091913306 3.0858981002 
3.0858981002 3.0858981002 3.0858981002 3.0858981002 3.0858981002 3.0858981002 3.0858981002 3.0858981002 3.091913306 
3.0979285117 3.1039437175 3.1039437175 3.0979285117 3.091913306 3.0858981002 3.0858981002 3.0858981002 3.0858981002 
3.0858981002 3.091913306 3.0979285117 3.1039437175 3.1039437175 3.0979285117 3.091913306 3.0858981002 3.0858981002 
3.0858981002 3.0858981002 3.0858981002 3.0858981002 3.091913306 3.0979285117 3.1039437175 3.1039437175 3.1039437175 
3.0979285117 3.091913306 3.0858981002 3.0858981002 3.0858981002 3.0858981002 3.0858981002 3.091913306 3.0979285117 
3.0979285117 3.1039437175 3.1039437175 3.0979285117 3.091913306 3.0858981002 3.0858981002 3.0858981002 3.0858981002 
3.091913306 3.0979285117 3.1039437175 3.1039437175 3.1039437175 3.0979285117 3.091913306 3.091913306 3.0858981002 
3.0858981002 3.0858981002 3.0858981002 3.0858981002 3.0858981002 3.091913306 3.0979285117 3.0979285117 3.1039437175 
3.1039437175 3.0979285117 3.091913306 3.0858981002 3.0858981002 3.0858981002 3.0858981002 3.0858981002 3.091913306 
3.0979285117 3.1039437175 3.1039437175 3.1039437175 3.0979285117 3.091913306 3.0858981002 3.0858981002 3.0858981002 
3.0858981002 3.0858981002 3.091913306 3.0979285117 3.1039437175 3.1099589233 3.1099589233 3.1099589233 3.1039437175 
3.0979285117 3.091913306 3.0858981002 3.0858981002 3.0858981002 3.0858981002 3.0858981002 3.091913306 3.0979285117 
3.1039437175 3.1099589233 3.1099589233 3.1099589233 3.1099589233 3.1039437175 3.0979285117 3.091913306 3.0858981002 
3.0858981002 3.0858981002 3.0858981002 3.0858981002 3.0858981002 3.091913306 3.091913306 3.0979285117 3.1039437175 
3.1099589233 3.1099589233 3.1099589233 3.1099589233 3.1039437175 3.0979285117 3.091913306 3.0858981002 3.0858981002 
3.0858981002 3.0858981002 3.0858981002 3.091913306 3.0979285117 3.1039437175 3.1039437175 3.1099589233 3.1099589233 
3.1099589233 3.1099589233 3.1039437175 3.0979285117 3.091913306 3.0858981002 3.0858981002 3.0858981002 3.0858981002 
3.0858981002 3.0858981002 3.091913306 3.0979285117 3.1039437175 3.1099589233 3.1099589233 3.1099589233 3.1039437175 
3.1039437175 3.0979285117 3.091913306 3.0858981002 3.0858981002 3.0858981002 3.0858981002 3.0858981002 3.091913306 
3.0979285117 3.1039437175 3.1099589233 3.1099589233 3.1099589233 3.1039437175 3.0979285117 3.091913306 3.0858981002 
3.0858981002 3.0858981002 3.0858981002 3.0858981002 3.091913306 3.0979285117 3.1039437175 3.1039437175 3.1099589233 
3.1099589233 3.1099589233 3.1099589233 3.1039437175 3.0979285117 3.091913306 3.0858981002 3.0858981002 3.0858981002 
3.0858981002 3.0858981002 3.0858981002 3.0858981002 3.091913306 3.0979285117 3.1039437175 3.1099589233 3.1099589233 
3.1039437175 3.0979285117 3.091913306 3.091913306 3.0858981002 3.0858981002 3.0858981002 3.0858981002 3.0858981002 
3.0858981002 3.091913306 3.0979285117 3.1039437175 3.1099589233 3.1099589233 3.1099589233 3.1039437175 3.1039437175 
3.0979285117 3.0979285117 3.091913306 3.0858981002 3.0858981002 3.0858981002 3.0858981002 3.091913306 3.0979285117 
3.1039437175 3.1099589233 3.1099589233 3.1099589233 3.1039437175 3.0979285117 3.091913306 3.0858981002 3.0858981002 
3.0858981002 3.0858981002 3.0858981002 3.0858981002 3.091913306 3.0979285117 3.1039437175 3.1099589233 3.1099589233 
3.1039437175 3.0979285117 3.091913306 3.0858981002 3.0858981002 3.0858981002 3.0858981002 3.0858981002 3.091913306 
3.0979285117 3.0979285117 3.1039437175 3.1099589233 3.1099589233 3.1099589233 3.1039437175 3.0979285117 3.091913306 
3.0858981002 3.0858981002 3.0858981002 3.0858981002 3.0858981002 3.091913306 3.0979285117 3.1039437175 3.1099589233 
3.1099589233 3.1099589233 3.1039437175 3.0979285117 3.091913306 3.0858981002 3.0858981002 3.0858981002 3.0858981002 
3.0858981002 3.091913306 3.0979285117 3.1039437175 3.1039437175 3.1099589233 3.1159741291 3.1159741291 3.1159741291 
3.1159741291 3.1099589233 3.1099589233 3.1039437175 3.1039437175 3.0979285117 3.091913306 3.0858981002 3.0858981002 
3.0858981002 3.0858981002 3.0858981002 3.091913306 3.0979285117 3.1039437175 3.1099589233 3.1159741291 3.1159741291 
3.1159741291 3.1159741291 3.1159741291 3.1099589233 3.1039437175 3.0979285117 3.091913306 3.0858981002 3.0858981002 
3.0858981002 3.0858981002 3.0858981002 3.0858981002 3.091913306 3.0979285117 3.1039437175 3.1099589233 3.1099589233 
3.1159741291 3.1159741291 3.1159741291 3.1159741291 3.1099589233 3.1099589233 3.1039437175 3.0979285117 3.091913306 
3.0858981002 3.0858981002 3.0858981002 3.0858981002 3.0858981002 3.091913306 3.091913306 3.0979285117 3.1039437175 
3.1099589233 3.1159741291 3.1159741291 3.1159741291 3.1099589233 3.1039437175 3.0979285117 3.091913306 3.0858981002 
3.0858981002 3.0858981002 3.0858981002 3.0858981002 3.091913306 3.0979285117 3.1039437175 3.1099589233 3.1159741291 
3.1159741291 3.1159741291 3.1099589233 3.1039437175 3.0979285117 3.091913306 3.0858981002 3.0858981002 3.0858981002 
3.0858981002 3.0858981002 3.0858981002 3.0858981002 3.091913306 3.0979285117 3.1039437175 3.1099589233 3.1159741291 
3.1159741291 3.1159741291 3.1099589233 3.1039437175 3.1039437175 3.0979285117 3.091913306 3.0858981002 3.0858981002 
3.0858981002 3.0858981002 3.0858981002 3.0858981002 3.091913306 3.0979285117 3.1039437175 3.1099589233 3.1159741291 
3.1159741291 3.1159741291 3.1099589233 3.1039437175 3.0979285117 3.091913306 3.0858981002 3.0798828944 3.0798828944 
3.0798828944 3.0858981002 3.0858981002 3.0858981002 3.0858981002 3.091913306 3.0979285117 3.1039437175 3.1099589233 
3.1159741291 3.1159741291 3.1159741291 3.1099589233 3.1099589233 3.1039437175 3.0979285117 3.091913306 3.0858981002 
3.0858981002 3.0798828944 3.0798828944 3.0798828944 3.0858981002 3.0858981002 3.0858981002 3.0858981002 3.0858981002 
3.0858981002 3.0858981002 3.091913306 3.0979285117 3.1039437175 3.1099589233 3.1099589233 3.1159741291 3.1159741291 
3.1099589233 3.1039437175 3.0979285117 3.091913306 3.0858981002 3.0798828944 3.0798828944 3.0798828944 3.0858981002 
3.0858981002 3.0858981002 3.0858981002 3.0858981002 3.091913306 3.0979285117 3.1039437175 3.1039437175 3.1099589233 
3.1159741291 3.1159741291 3.1219893349 3.1219893349 3.1219893349 3.1219893349 3.1159741291 3.1159741291 3.1099589233 
3.1039437175 3.0979285117 3.091913306 3.0858981002 3.0798828944 3.0798828944 3.0798828944 3.0798828944 3.0858981002 
3.0858981002 3.0858981002 3.0858981002 3.0858981002 3.091913306 3.0979285117 3.1039437175 3.1099589233 3.1159741291 
3.1219893349 3.1219893349 3.1219893349 3.1219893349 3.1219893349 3.1159741291 3.1099589233 3.1039437175 3.0979285117 
3.091913306 3.0858981002 3.0798828944 3.0798828944 3.0798828944 3.0858981002 3.0858981002 3.0858981002 3.0858981002 
3.0858981002 3.091913306 3.0979285117 3.1039437175 3.1099589233 3.1159741291 3.1219893349 3.1219893349 3.1219893349 
3.1219893349 3.1159741291 3.1159741291 3.1099589233 3.1099589233 3.1039437175 3.1039437175 3.0979285117 3.091913306 
3.0858981002 3.0798828944 3.0798828944 3.0798828944 3.0858981002 3.0858981002 3.0858981002 3.0858981002 3.0858981002 
3.0858981002 3.0858981002 3.0858981002 3.091913306 3.0979285117 3.1039437175 3.1099589233 3.1099589233 3.1159741291 
3.1159741291 3.1219893349 3.1219893349 3.1219893349 3.1159741291 3.1099589233 3.1039437175 3.0979285117 3.091913306 
3.0858981002 3.0798828944 3.0798828944 3.0798828944 3.0858981002 3.0858981002 3.0858981002 3.091913306 3.0979285117 
3.1039437175 3.1099589233 3.1159741291 3.1219893349 3.1219893349 3.1219893349 3.1159741291 3.1099589233 3.1039437175 
3.0979285117 3.0979285117 3.091913306 3.0858981002 3.0798828944 3.0798828944 3.0858981002 3.0858981002 3.0858981002 
3.0858981002 3.091913306 3.0979285117 3.1039437175 3.1099589233 3.1159741291 3.1219893349 3.1219893349 3.1159741291 
3.1099589233 3.1039437175 3.0979285117 3.091913306 3.0858981002 3.0858981002 3.0798828944 3.0798828944 3.0798828944 
3.0858981002 3.0858981002 3.0858981002 3.0798828944 3.0798828944 3.0798828944 3.0798828944 3.0798828944 3.0798828944 
3.0798828944 3.0798828944 3.0798828944 3.0798828944 3.0798828944 3.0798828944 3.0858981002 3.0858981002 3.091913306 
3.091913306 3.0979285117 3.1039437175 3.1099589233 3.1159741291 3.1219893349 3.1219893349 3.1219893349 3.1219893349 
3.1159741291 3.1159741291 3.1099589233 3.1099589233 3.1039437175 3.0979285117 3.091913306 3.0858981002 3.0798828944 
3.0798828944 3.0798828944 3.0858981002 3.0858981002 3.0798828944 3.0798828944 3.0798828944 3.0858981002 3.091913306 
3.0979285117 3.1039437175 3.1099589233 3.1159741291 3.1159741291 3.1219893349 3.1280045407 3.1280045407 3.1280045407 
3.1280045407 3.1219893349 3.1159741291 3.1099589233 3.1039437175 3.1039437175 3.0979285117 3.091913306 3.0858981002 
3.0798828944 3.0798828944 3.0858981002 3.0858981002 3.0798828944 3.0798828944 3.0798828944 3.0858981002 3.091913306 
3.0979285117 3.1039437175 3.1099589233 3.1099589233 3.1159741291 3.1219893349 3.1219893349 3.1280045407 3.1280045407 
3.1280045407 3.1280045407 3.1219893349 3.1219893349 3.1159741291 3.1099589233 3.1039437175 3.0979285117 3.091913306 
3.0858981002 3.0798828944 3.0798828944 3.0858981002 3.0858981002 3.0798828944 3.0798828944 3.0798828944 3.0798828944 
3.0858981002 3.091913306 3.0979285117 3.1039437175 3.1099589233 3.1159741291 3.1219893349 3.1280045407 3.1280045407 
3.1280045407 3.1280045407 3.1219893349 3.1159741291 3.1159741291 3.1099589233 3.1039437175 3.0979285117 3.091913306 
3.0858981002 3.0798828944 3.0798828944 3.0798828944 3.0858981002 3.0858981002 3.0798828944 3.0798828944 3.0858981002 
3.0858981002 3.091913306 3.0979285117 3.1039437175 3.1099589233 3.1159741291 3.1219893349 3.1280045407 3.1280045407 
3.1280045407 3.1219893349 3.1159741291 3.1099589233 3.1039437175 3.0979285117 3.091913306 3.0858981002 3.0798828944 
3.0798828944 3.0798828944 3.0858981002 3.0858981002 3.0798828944 3.0798828944 3.0798828944 3.0798828944 3.0858981002 
3.091913306 3.0979285117 3.1039437175 3.1099589233 3.1159741291 3.1219893349 3.1219893349 3.1280045407 3.1280045407 
3.1280045407 3.1219893349 3.1219893349 3.1159741291 3.1099589233 3.1099589233 3.1039437175 3.0979285117 3.0979285117 
3.091913306 3.0858981002 3.0798828944 3.0798828944 3.0858981002 3.0858981002 3.0798828944 3.0798828944 3.0798828944 
3.0858981002 3.091913306 3.0979285117 3.1039437175 3.1099589233 3.1159741291 3.1219893349 3.1280045407 3.1280045407 
3.1280045407 3.1280045407 3.1219893349 3.1159741291 3.1159741291 3.1099589233 3.1039437175 3.0979285117 3.091913306 
3.0858981002 3.0798828944 3.0798828944 3.0858981002 3.0858981002 3.0798828944 3.0798828944 3.0858981002 3.091913306 
3.0979285117 3.1039437175 3.1099589233 3.1159741291 3.1159741291 3.1219893349 3.1280045407 3.1340197465 3.1340197465 
3.1340197465 3.1340197465 3.1340197465 3.1280045407 3.1219893349 3.1159741291 3.1099589233 3.1039437175 3.1039437175 
3.0979285117 3.091913306 3.0858981002 3.0798828944 3.0798828944 3.0858981002 3.0858981002 3.0858981002 3.0858981002 
3.0798828944 3.0798828944 3.0798828944 3.0798828944 3.0858981002 3.091913306 3.0979285117 3.1039437175 3.1039437175 
3.1099589233 3.1159741291 3.1219893349 3.1280045407 3.1280045407 3.1340197465 3.1340197465 3.1340197465 3.1340197465 
3.1280045407 3.1219893349 3.1219893349 3.1159741291 3.1099589233 3.1039437175 3.0979285117 3.091913306 3.0858981002 
3.0798828944 3.0798828944 3.0798828944 3.0798828944 3.0858981002 3.0858981002 3.0798828944 3.0798828944 3.0798828944 
3.0798828944 3.0858981002 3.0858981002 3.091913306 3.091913306 3.0979285117 3.1039437175 3.1099589233 3.1159741291 
3.1219893349 3.1219893349 3.1280045407 3.1340197465 3.1340197465 3.1340197465 3.1340197465 3.1280045407 3.1280045407 
3.1219893349 3.1159741291 3.1099589233 3.1039437175 3.0979285117 3.091913306 3.0858981002 3.0798828944 3.0798828944 