# vtk DataFile Version 4.2
vtk output
ASCII
DATASET POLYDATA
POINTS 18308 float
1458.04 -3910.19 0 1479.81 -3924.42 0 1516.81 -3926.36 0 
1553.81 -3923.11 0 1590.81 -3918.32 0 1627.81 -3913.53 0 
1653.69 -3910.19 0 1442.64 -3893.19 0 1442.81 -3893.76 0 
1664.82 -3908.75 0 1701.82 -3903.96 0 1738.82 -3899.17 0 
1775.82 -3894.39 0 1785.13 -3893.18 0 1436.12 -3876.19 0 
1812.82 -3889.6 0 1849.82 -3884.81 0 1886.82 -3880.02 0 
1916.57 -3876.18 0 1424.83 -3859.19 0 1923.82 -3875.24 0 
1960.83 -3870.45 0 1997.83 -3865.66 0 2034.83 -3860.88 0 
2048 -3859.17 0 1413.54 -3842.19 0 2071.83 -3856.09 0 
2108.83 -3851.3 0 2145.83 -3846.51 0 2179.44 -3842.17 0 
1402.25 -3825.19 0 1405.81 -3830.55 0 2182.83 -3841.73 0 
2219.83 -3836.94 0 2256.84 -3832.15 0 2293.84 -3827.37 0 
2310.87 -3825.16 0 1390.96 -3808.19 0 2330.84 -3822.58 0 
2367.84 -3817.79 0 2404.84 -3813.01 0 2441.84 -3808.22 0 
2441.87 -3808.16 0 1379.67 -3791.19 0 2449.53 -3791.16 0 
1368.38 -3774.19 0 1368.81 -3774.83 0 2455.81 -3774.16 0 
1357.1 -3757.18 0 2462.21 -3757.15 0 1345.81 -3740.18 0 
2468.62 -3740.15 0 1334.52 -3723.18 0 2475.03 -3723.15 0 
1323.23 -3706.18 0 1331.82 -3719.12 0 2478.85 -3713.02 0 
2481.44 -3706.15 0 1311.94 -3689.18 0 2487.85 -3689.15 0 
1300.65 -3672.18 0 2494.26 -3672.15 0 1289.36 -3655.18 0 
1294.82 -3663.4 0 2500.66 -3655.15 0 1278.07 -3638.18 0 
2507.07 -3638.15 0 1266.78 -3621.18 0 2513.48 -3621.15 0 
1255.49 -3604.18 0 1257.82 -3607.69 0 2515.86 -3614.85 0 
2519.89 -3604.14 0 1244.2 -3587.18 0 2526.3 -3587.14 0 
1232.91 -3570.18 0 2532.71 -3570.14 0 1221.62 -3553.18 0 
2539.11 -3553.14 0 1210.33 -3536.18 0 1220.82 -3551.97 0 
2545.52 -3536.14 0 1199.04 -3519.17 0 2551.93 -3519.14 0 
1187.75 -3502.17 0 2552.86 -3516.67 0 2558.34 -3502.14 0 
1176.47 -3485.17 0 1183.83 -3496.26 0 2564.75 -3485.14 0 
1165.18 -3468.17 0 2571.16 -3468.13 0 1153.89 -3451.17 0 
2577.56 -3451.13 0 1142.6 -3434.17 0 1146.83 -3440.54 0 
2583.97 -3434.13 0 1131.31 -3417.17 0 2589.87 -3418.49 0 
2590.38 -3417.13 0 1120.02 -3400.17 0 2596.79 -3400.13 0 
1108.73 -3383.17 0 1109.83 -3384.83 0 2603.2 -3383.13 0 
1097.44 -3366.17 0 2609.61 -3366.13 0 1086.15 -3349.17 0 
2616.02 -3349.13 0 1074.86 -3332.17 0 2622.42 -3332.13 0 
1063.57 -3315.17 0 1072.83 -3329.11 0 2625.39 -3315.12 0 
1052.28 -3298.17 0 2611.68 -3298.12 0 1040.99 -3281.16 0 
2598.23 -3281.12 0 1029.7 -3264.16 0 1035.84 -3273.4 0 
2589.88 -3270.94 0 2584.28 -3264.12 0 1018.41 -3247.16 0 
2570.34 -3247.12 0 1007.12 -3230.16 0 2556.39 -3230.12 0 
995.835 -3213.16 0 998.838 -3217.68 0 2552.88 -3225.83 0 
2542.45 -3213.12 0 984.546 -3196.16 0 2528.51 -3196.12 0 
973.256 -3179.16 0 2515.88 -3180.73 0 2514.56 -3179.12 0 
961.967 -3162.16 0 2500.62 -3162.12 0 950.678 -3145.16 0 
961.84 -3161.97 0 2486.67 -3145.12 0 939.388 -3128.16 0 
2478.88 -3135.62 0 2474.82 -3128.12 0 928.099 -3111.16 0 
2474.42 -3111.12 0 916.81 -3094.16 0 924.842 -3106.25 0 
2477.82 -3094.11 0 907.175 -3077.16 0 2478.89 -3088.8 0 
2481.22 -3077.11 0 902.865 -3060.16 0 2484.63 -3060.11 0 
900.079 -3043.15 0 2488.03 -3043.11 0 898.131 -3026.15 0 
2491.43 -3026.11 0 896.693 -3009.15 0 2494.83 -3009.11 0 
895.586 -2992.15 0 2498.24 -2992.11 0 894.914 -2975.15 0 
2501.64 -2975.11 0 894.837 -2958.15 0 2505.04 -2958.11 0 
894.759 -2941.15 0 2508.45 -2941.11 0 895.847 -2924.15 0 
2511.85 -2924.1 0 898.304 -2907.15 0 2515.25 -2907.1 0 
900.225 -2890.15 0 2515.9 -2903.88 0 2518.65 -2890.1 0 
897.506 -2873.14 0 2522.06 -2873.1 0 896.181 -2856.14 0 
2525.46 -2856.1 0 895.397 -2839.14 0 2528.86 -2839.1 0 
889.463 -2822.14 0 2532.26 -2822.1 0 881.282 -2805.14 0 
887.858 -2817.95 0 2535.67 -2805.1 0 -1110.19 -2788.35 0 
-1110.93 -2788.19 0 -1108.16 -2788.19 0 875.793 -2788.14 0 
2539.07 -2788.1 0 -1147.19 -2773.91 0 -1149.04 -2771.19 0 
-1073.19 -2785.43 0 -1036.19 -2782.51 0 -999.19 -2779.59 0 
-962.189 -2776.67 0 -925.188 -2773.75 0 -892.79 -2771.19 0 
869.946 -2771.14 0 2542.47 -2771.09 0 -1160.59 -2754.19 0 
-888.187 -2770.82 0 -851.186 -2767.9 0 -814.185 -2764.98 0 
-777.183 -2762.06 0 -740.182 -2759.14 0 -703.181 -2756.21 0 
-677.418 -2754.18 0 863.44 -2754.14 0 2545.88 -2754.09 0 
-1172.14 -2737.19 0 -666.18 -2753.29 0 -629.179 -2750.37 0 
-592.177 -2742.6 0 -577.24 -2737.18 0 856.935 -2737.14 0 
2549.28 -2737.09 0 -1183.69 -2720.19 0 -555.176 -2729.17 0 
-530.41 -2720.17 0 850.429 -2720.14 0 850.863 -2721.27 0 
2552.68 -2720.09 0 -1184.19 -2719.45 0 -1195.24 -2703.19 0 
-518.174 -2715.73 0 -483.58 -2703.17 0 843.924 -2703.14 0 
2552.91 -2718.95 0 2556.08 -2703.09 0 -1206.79 -2686.19 0 
-481.172 -2702.3 0 -444.17 -2688.86 0 -436.75 -2686.17 0 
837.418 -2686.14 0 2559.49 -2686.09 0 -1218.34 -2669.19 0 
-407.168 -2675.43 0 -390.222 -2669.17 0 830.913 -2669.13 0 
2562.89 -2669.09 0 -1221.19 -2664.99 0 -1229.89 -2652.19 0 
-370.167 -2661.86 0 -345.109 -2652.17 0 824.407 -2652.13 0 
2566.29 -2652.09 0 -1241.43 -2635.19 0 -333.165 -2647.57 0 
-301.133 -2635.16 0 817.901 -2635.13 0 2569.69 -2635.09 0 
-1252.98 -2618.19 0 -296.163 -2633.24 0 -259.161 -2618.91 0 
-257.225 -2618.16 0 811.396 -2618.13 0 813.868 -2624.59 0 
2573.1 -2618.08 0 -1258.19 -2610.53 0 -1264.53 -2601.19 0 
-222.159 -2604.58 0 -213.319 -2601.16 0 804.89 -2601.13 0 
2576.5 -2601.08 0 -1276.08 -2584.19 0 -185.157 -2590.25 0 
-169.412 -2584.16 0 798.385 -2584.13 0 2579.9 -2584.08 0 
-1287.63 -2567.19 0 -148.156 -2575.93 0 -125.505 -2567.15 0 
791.879 -2567.13 0 2583.31 -2567.08 0 -1295.19 -2556.06 0 
-1299.18 -2550.19 0 -111.154 -2561.6 0 -81.5986 -2550.15 0 
785.374 -2550.13 0 2586.71 -2550.08 0 -1310.73 -2533.18 0 
-74.1518 -2547.27 0 -37.6913 -2533.15 0 778.868 -2533.13 0 
2589.92 -2534.03 0 2590.11 -2533.08 0 -1322.28 -2516.18 0 
-37.15 -2532.94 0 -0.14802 -2516.49 0 -0.0100227 -2516.15 0 
772.362 -2516.13 0 776.872 -2527.91 0 2593.51 -2516.08 0 
-1332.18 -2501.6 0 -1333.83 -2499.18 0 3.93503 -2499.15 0 
765.857 -2499.13 0 2596.92 -2499.08 0 -1345.38 -2482.18 0 
7.88008 -2482.15 0 759.351 -2482.13 0 2600.32 -2482.08 0 
-1356.92 -2465.18 0 11.8251 -2465.14 0 752.846 -2465.12 0 
2603.72 -2465.07 0 -1368.47 -2448.18 0 15.7702 -2448.14 0 
746.34 -2448.12 0 2607.12 -2448.07 0 -1369.18 -2447.14 0 
-1380.02 -2431.18 0 19.7152 -2431.14 0 739.835 -2431.12 0 
739.877 -2431.23 0 2610.53 -2431.07 0 -1391.57 -2414.18 0 
23.6603 -2414.14 0 733.329 -2414.12 0 2613.93 -2414.07 0 
-1403.12 -2397.18 0 27.6054 -2397.14 0 726.824 -2397.12 0 
2617.33 -2397.07 0 -1406.18 -2392.68 0 -1414.67 -2380.18 0 
31.5504 -2380.14 0 720.318 -2380.12 0 2620.74 -2380.07 0 
-1426.22 -2363.18 0 35.4955 -2363.14 0 713.813 -2363.12 0 
2624.14 -2363.07 0 -1437.77 -2346.18 0 36.8623 -2357.25 0 
39.4405 -2346.14 0 707.307 -2346.12 0 2626.93 -2349.11 0 
2627.54 -2346.07 0 -1443.18 -2338.22 0 -1449.32 -2329.18 0 
43.3856 -2329.14 0 700.801 -2329.12 0 702.882 -2334.55 0 
2630.94 -2329.07 0 -1460.87 -2312.18 0 47.3306 -2312.13 0 
694.296 -2312.12 0 2634.35 -2312.06 0 -1472.42 -2295.17 0 
51.2757 -2295.13 0 687.79 -2295.12 0 2637.75 -2295.06 0 
-1480.17 -2283.75 0 -1483.97 -2278.17 0 55.2207 -2278.13 0 
681.285 -2278.12 0 2641.15 -2278.06 0 -1496.36 -2261.17 0 
59.1658 -2261.13 0 674.779 -2261.11 0 2644.55 -2261.06 0 
-1508.83 -2244.17 0 63.1109 -2244.13 0 668.274 -2244.11 0 
1376.87 -2244.09 0 1405.91 -2258.27 0 1442.91 -2253.4 0 
1479.91 -2248.49 0 1512.99 -2244.09 0 2647.96 -2244.06 0 
-1517.17 -2232.8 0 -1521.3 -2227.17 0 67.0559 -2227.13 0 
661.768 -2227.11 0 665.886 -2237.88 0 1344.54 -2227.09 0 
1368.91 -2240.43 0 1516.91 -2243.57 0 1553.91 -2238.65 0 
1590.91 -2233.74 0 1627.91 -2228.82 0 1640.96 -2227.09 0 
2651.36 -2227.06 0 -1533.78 -2210.17 0 71.9903 -2210.13 0 
655.472 -2210.11 0 1314.5 -2210.09 0 1331.91 -2219.73 0 
1664.91 -2223.9 0 1701.92 -2218.99 0 1738.92 -2214.07 0 
1768.93 -2210.08 0 2648.94 -2210.06 0 -1546.25 -2193.17 0 
73.8723 -2205.18 0 78.457 -2193.13 0 650.896 -2193.11 0 
1285.26 -2193.09 0 1294.91 -2198.49 0 1775.92 -2209.15 0 
1812.92 -2204.24 0 1849.92 -2199.32 0 1886.92 -2194.4 0 
1891.95 -2193.08 0 2644.42 -2193.06 0 -1554.17 -2182.37 0 
-1558.72 -2176.17 0 84.9237 -2176.13 0 648.492 -2176.11 0 
1256.97 -2176.09 0 1257.91 -2176.62 0 1923.92 -2180.43 0 
1927.54 -2176.08 0 2638.54 -2176.06 0 -1571.19 -2159.17 0 
91.3904 -2159.12 0 646.088 -2159.11 0 1227.65 -2159.09 0 
1941.65 -2159.07 0 2635.34 -2159.06 0 -1583.67 -2142.17 0 
97.857 -2142.12 0 643.683 -2142.11 0 1198.14 -2142.09 0 
1220.91 -2155.21 0 1955.75 -2142.07 0 2632.84 -2142.05 0 
-1591.17 -2131.94 0 -1596.14 -2125.17 0 104.324 -2125.12 0 
641.279 -2125.11 0 1168.63 -2125.09 0 1183.91 -2133.89 0 
1960.93 -2135.84 0 1967.03 -2125.07 0 2630.78 -2125.05 0 
-1608.61 -2108.17 0 110.79 -2108.12 0 638.874 -2108.11 0 
1139.13 -2108.09 0 1146.91 -2112.58 0 1976.47 -2108.07 0 
2628.72 -2108.05 0 3662.97 -2117.49 0 3648.86 -2108.03 0 
3699.98 -2114.13 0 3729.05 -2108.02 0 -1621.08 -2091.17 0 
110.879 -2107.89 0 117.257 -2091.12 0 636.47 -2091.11 0 
1109.62 -2091.09 0 1109.91 -2091.26 0 1985.63 -2091.07 0 
2626.95 -2093.47 0 2626.72 -2091.05 0 3625.98 -2092.68 0 
3623.5 -2091.02 0 3736.98 -2106.36 0 3773.98 -2098.59 0 
3810.01 -2091.02 0 -1628.17 -2081.51 0 -1633.55 -2074.17 0 
123.724 -2074.12 0 634.065 -2074.1 0 1080.11 -2074.09 0 
1994.63 -2074.07 0 2625.15 -2074.05 0 3598.14 -2074.02 0 
3810.98 -2090.82 0 3847.98 -2083.05 0 3884.98 -2075.28 0 
3890.98 -2074.02 0 -1646.03 -2057.17 0 130.191 -2057.12 0 
631.661 -2057.1 0 1050.6 -2057.09 0 1072.91 -2069.94 0 
1997.93 -2067.84 0 2003.64 -2057.07 0 2623.61 -2057.05 0 
3588.98 -2067.88 0 3572.78 -2057.02 0 3921.98 -2067.51 0 
3958.06 -2057.01 0 -1658.5 -2040.16 0 136.657 -2040.12 0 
629.257 -2040.1 0 1021.1 -2040.09 0 1035.91 -2048.63 0 
2012.65 -2040.07 0 2622.12 -2040.05 0 3551.98 -2043.08 0 
3547.41 -2040.02 0 3958.99 -2056.67 0 3980.82 -2040.01 0 
-1665.16 -2031.08 0 -1670.97 -2023.16 0 143.124 -2023.12 0 
626.852 -2023.1 0 628.897 -2037.56 0 995.399 -2023.09 0 
998.908 -2027.31 0 2021.65 -2023.06 0 2620.66 -2023.05 0 
3522.05 -2023.02 0 3995.99 -2028.44 0 4003.1 -2023.01 0 
[...]
POINT_DATA 18308
SCALARS Pressure double
LOOKUP_TABLE default
3.091913306 3.091913306 3.091913306 3.091913306 3.091913306 3.091913306 3.091913306 3.091913306 3.091913306 
3.091913306 3.091913306 3.091913306 3.091913306 3.091913306 3.091913306 3.091913306 3.091913306 3.091913306 
3.091913306 3.091913306 3.091913306 3.091913306 3.091913306 3.091913306 3.091913306 3.091913306 3.091913306 
3.091913306 3.091913306 3.091913306 3.091913306 3.091913306 3.091913306 3.091913306 3.091913306 3.091913306 
3.091913306 3.091913306 3.091913306 3.091913306 3.091913306 3.091913306 3.091913306 3.091913306 3.091913306 
3.091913306 3.091913306 3.091913306 3.091913306 3.091913306 3.091913306 3.091913306 3.091913306 3.091913306 
3.091913306 3.091913306 3.091913306 3.091913306 3.091913306 3.091913306 3.091913306 3.091913306 3.091913306 
3.091913306 3.091913306 3.091913306 3.091913306 3.091913306 3.091913306 3.091913306 3.091913306 3.091913306 
3.091913306 3.091913306 3.091913306 3.091913306 3.091913306 3.091913306 3.091913306 3.091913306 3.091913306 
3.091913306 3.091913306 3.091913306 3.091913306 3.091913306 3.091913306 3.091913306 3.091913306 3.091913306 
3.091913306 3.091913306 3.091913306 3.091913306 3.091913306 3.091913306 3.091913306 3.091913306 3.091913306 
3.091913306 3.091913306 3.091913306 3.091913306 3.091913306 3.091913306 3.091913306 3.091913306 3.091913306 
3.091913306 3.091913306 3.091913306 3.091913306 3.091913306 3.091913306 3.091913306 3.091913306 3.091913306 
3.091913306 3.091913306 3.091913306 3.091913306 3.091913306 3.091913306 3.091913306 3.091913306 3.091913306 
3.091913306 3.091913306 3.091913306 3.091913306 3.091913306 3.091913306 3.091913306 3.091913306 3.091913306 
3.091913306 3.091913306 3.091913306 3.091913306 3.091913306 3.091913306 3.091913306 3.091913306 3.091913306 
3.091913306 3.091913306 3.091913306 3.091913306 3.091913306 3.091913306 3.091913306 3.091913306 3.091913306 
3.091913306 3.091913306 3.091913306 3.091913306 3.091913306 3.091913306 3.091913306 3.091913306 3.091913306 
3.091913306 3.091913306 3.091913306 3.091913306 3.091913306 3.091913306 3.091913306 3.091913306 3.091913306 
3.091913306 3.091913306 3.091913306 3.091913306 3.091913306 3.091913306 3.091913306 3.091913306 3.091913306 
3.091913306 3.091913306 3.091913306 3.091913306 3.091913306 3.0858981002 3.0858981002 3.0858981002 3.091913306 
3.091913306 3.0858981002 3.0858981002 3.0858981002 3.0858981002 3.0858981002 3.0858981002 3.0858981002 3.0858981002 
3.091913306 3.091913306 3.0858981002 3.0858981002 3.0858981002 3.0858981002 3.0858981002 3.0858981002 3.0858981002 
3.0858981002 3.091913306 3.091913306 3.0858981002 3.0858981002 3.0858981002 3.0858981002 3.0858981002 3.091913306 
3.091913306 3.0858981002 3.0858981002 3.0858981002 3.091913306 3.091913306 3.091913306 3.0858981002 3.0858981002 
3.0858981002 3.0858981002 3.091913306 3.091913306 3.091913306 3.0858981002 3.0858981002 3.0858981002 3.0858981002 
3.091913306 3.091913306 3.0858981002 3.0858981002 3.0858981002 3.091913306 3.091913306 3.0858981002 3.0858981002 
3.0858981002 3.0858981002 3.091913306 3.091913306 3.0858981002 3.0858981002 3.0858981002 3.091913306 3.091913306 
3.0858981002 3.0858981002 3.0858981002 3.0858981002 3.091913306 3.091913306 3.091913306 3.0858981002 3.0858981002 
3.0858981002 3.0858981002 3.091913306 3.091913306 3.0858981002 3.0858981002 3.0858981002 3.091913306 3.091913306 
3.0858981002 3.0858981002 3.0858981002 3.091913306 3.091913306 3.0858981002 3.0858981002 3.0858981002 3.0858981002 
3.091913306 3.091913306 3.0858981002 3.0858981002 3.0858981002 3.091913306 3.091913306 3.091913306 3.0858981002 
3.0858981002 3.0858981002 3.0858981002 3.091913306 3.091913306 3.091913306 3.0858981002 3.0858981002 3.0858981002 
3.091913306 3.091913306 3.0858981002 3.0858981002 3.091913306 3.091913306 3.0858981002 3.0858981002 3.091913306 
3.091913306 3.0858981002 3.0858981002 3.091913306 3.091913306 3.0858981002 3.0858981002 3.0858981002 3.091913306 
3.091913306 3.091913306 3.0858981002 3.0858981002 3.091913306 3.091913306 3.0858981002 3.0858981002 3.091913306 
3.091913306 3.0858981002 3.0858981002 3.0858981002 3.091913306 3.091913306 3.0858981002 3.0858981002 3.091913306 
3.091913306 3.0858981002 3.0858981002 3.0858981002 3.091913306 3.091913306 3.091913306 3.0858981002 3.0858981002 
3.0858981002 3.091913306 3.091913306 3.091913306 3.0858981002 3.0858981002 3.091913306 3.091913306 3.0858981002 
3.0858981002 3.091913306 3.091913306 3.0858981002 3.0858981002 3.0858981002 3.091913306 3.091913306 3.0858981002 
3.0858981002 3.091913306 3.091913306 3.0858981002 3.0858981002 3.091913306 3.0979285117 3.0979285117 3.0979285117 
3.0979285117 3.0979285117 3.091913306 3.0858981002 3.0858981002 3.0858981002 3.091913306 3.091913306 3.0979285117 
3.0979285117 3.0979285117 3.0979285117 3.0979285117 3.0979285117 3.0979285117 3.091913306 3.0858981002 3.0858981002 
3.091913306 3.0979285117 3.0979285117 3.0979285117 3.0979285117 3.0979285117 3.0979285117 3.091913306 3.0858981002 
3.0858981002 3.0858981002 3.091913306 3.0979285117 3.0979285117 3.0979285117 3.0979285117 3.0979285117 3.0979285117 
3.0979285117 3.091913306 3.0858981002 3.0858981002 3.0858981002 3.091913306 3.0979285117 3.0979285117 3.0979285117 
3.0979285117 3.091913306 3.0858981002 3.0858981002 3.091913306 3.0979285117 3.0979285117 3.091913306 3.0858981002 
3.0858981002 3.091913306 3.0979285117 3.0979285117 3.0979285117 3.091913306 3.0858981002 3.0858981002 3.0858981002 
3.091913306 3.0979285117 3.0979285117 3.0979285117 3.0979285117 3.091913306 3.0858981002 3.0858981002 3.091913306 
3.0979285117 3.0979285117 3.0979285117 3.091913306 3.0858981002 3.0858981002 3.0858981002 3.0858981002 3.0858981002 
3.0858981002 3.0858981002 3.091913306 3.0979285117 3.0979285117 3.0979285117 3.091913306 3.091913306 3.0858981002 
3.0858981002 3.0858981002 3.0858981002 3.0858981002 3.0858981002 3.0858981002 3.0858981002 3.091913306 3.0979285117 
3.0979285117 3.091913306 3.0858981002 3.0858981002 3.0858981002 3.0858981002 3.0858981002 3.0858981002 3.0858981002 
3.091913306 3.0979285117 3.0979285117 3.0979285117 3.0979285117 3.091913306 3.0858981002 3.0858981002 3.0858981002 
3.0858981002 3.0858981002 3.0858981002 3.091913306 3.0979285117 3.0979285117 3.0979285117 3.091913306 3.0858981002 
3.0858981002 3.0858981002 3.0858981002 3.0858981002 3.0858981002 3.0858981002 3.091913306 3.091913306 3.0979285117 
3.0979285117 3.0979285117 3.091913306 3.0858981002 3.0858981002 3.0858981002 3.0858981002 3.0858981002 3.0858981002 
3.091913306 3.0979285117 3.0979285117 3.091913306 3.0858981002 3.0858981002 3.0858981002 3.0858981002 3.0858981002 
3.091913306 3.0979285117 3.0979285117 3.0979285117 3.091913306 3.0858981002 3.0858981002 3.0858981002 3.0858981002 
3.0858981002 3.0858981002 3.0858981002 3.091913306 3.0979285117 3.0979285117 3.091913306 3.0858981002 3.0858981002 
3.0858981002 3.0858981002 3.091913306 3.0979285117 3.0979285117 3.0979285117 3.091913306 3.0858981002 3.0858981002 
3.0858981002 3.0858981002 3.0858981002 3.0858981002 3.091913306 3.0979285117 3.0979285117 3.091913306 3.0858981002 
3.0858981002 3.0858981002 3.0858981002 3.0858981002 3.0858981002 3.0858981002 3.091913306 3.0979285117 3.0979285117 
3.0979285117 3.091913306 3.0858981002 3.0858981002 3.0858981002 3.0858981002 3.0858981002 3.091913306 3.0979285117 
3.0979285117 3.091913306 3.0858981002 3.0858981002 3.0858981002 3.0858981002 3.0858981002 3.0858981002 3.091913306 
3.0979285117 3.0979285117 3.091913306 3.0858981002 3.0858981002 3.0858981002 3.0858981002 3.0858981002 3.0858981002 
3.091913306 3.0979285117 3.0979285117 3.091913306 3.0858981002 3.0858981002 3.0858981002 3.0858981002 3.091913306 
3.0979285117 3.0979285117 3.0979285117 3.0979285117 3.091913306 3.0858981002 3.0858981002 3.0858981002 3.0858981002 
3.0858981002 3.0858981002 3.091913306 3.0979285117 3.0979285117 3.091913306 3.0858981002 3.0858981002 3.0858981002 
3.0858981002 3.0858981002 3.0858981002 3.0858981002 3.091913306 3.0979285117 3.0979285117 3.091913306 3.0858981002 
3.0858981002 3.0858981002 3.0858981002 3.0858981002 3.0858981002 3.091913306 3.0979285117 3.0979285117 3.091913306 
3.0858981002 3.0858981002 3.0858981002 3.0858981002 3.0858981002 3.091913306 3.0979285117 3.0979285117 3.0979285117 
3.091913306 3.0858981002 3.0858981002 3.0858981002 3.0858981002 3.0858981002 3.0858981002 3.091913306 3.0979285117 
3.1039437175 3.1039437175 3.1039437175 3.1039437175 3.1039437175 3.1039437175 3.0979285117 3.091913306 3.0858981002 
3.0858981002 3.0858981002 3.0858981002 3.0858981002 3.091913306 3.0979285117 3.1039437175 3.1039437175 3.1039437175 
3.1039437175 3.1039437175 3.1039437175 3.1039437175 3.1039437175 3.1039437175 3.1039437175 3.0979285117 3.091913306 
3.0858981002 3.0858981002 3.0858981002 3.0858981002 3.0798828944 3.0798828944 3.0798828944 3.0858981002 3.091913306 
3.0979285117 3.0979285117 3.1039437175 3.1039437175 3.0979285117 3.091913306 3.0858981002 3.0858981002 3.0858981002 
3.0858981002 3.0858981002 3.0798828944 3.0798828944 3.0798828944 3.0798828944 3.0798828944 3.0858981002 3.091913306 
3.0979285117 3.1039437175 3.1039437175 3.1039437175 3.0979285117 3.0979285117 3.091913306 3.0858981002 3.0858981002 
3.0858981002 3.0798828944 3.0798828944 3.0798828944 3.0798828944 3.0858981002 3.0858981002 3.091913306 3.0979285117 
3.1039437175 3.1039437175 3.1039437175 3.1039437175 3.0979285117 3.091913306 3.0858981002 3.0858981002 3.0858981002 
3.0858981002 3.0798828944 3.0798828944 3.0798828944 3.0798828944 3.0858981002 3.091913306 3.0979285117 3.1039437175 
3.1039437175 3.0979285117 3.091913306 3.0858981002 3.0858981002 3.0858981002 3.0858981002 3.0858981002 3.0798828944 
3.0798828944 3.0798828944 3.0798828944 3.0798828944 3.0858981002 3.091913306 3.0979285117 3.1039437175 3.1039437175 
3.1039437175 3.0979285117 3.091913306 3.0858981002 3.0858981002 3.0858981002 3.0798828944 3.0798828944 3.0798828944 
3.0798828944 3.0858981002 3.091913306 3.0979285117 3.1039437175 3.1039437175 3.0979285117 3.091913306 3.0858981002 
3.0858981002 3.0858981002 3.0858981002 3.0798828944 3.0798828944 3.0798828944 3.0798828944 3.0858981002 3.091913306 
3.0979285117 3.0979285117 3.1039437175 3.1039437175 3.1039437175 3.1039437175 3.0979285117 3.091913306 3.0858981002 
3.0858981002 3.0858981002 3.0858981002 3.0798828944 3.0798828944 3.0798828944 3.0798828944 3.0798828944 3.0858981002 
3.091913306 3.0979285117 3.1039437175 3.1039437175 3.0979285117 3.091913306 3.0858981002 3.0858981002 3.0858981002 
3.0858981002 3.0858981002 3.0798828944 3.0798828944 3.0798828944 3.0858981002 3.091913306 3.091913306 3.0979285117 
3.1039437175 3.1039437175 3.1039437175 3.0979285117 3.091913306 3.0858981002 3.0858981002 3.0858981002 3.0798828944 
3.0798828944 3.0798828944 3.0858981002 3.091913306 3.0979285117 3.1039437175 3.1039437175 3.1039437175 3.0979285117 
3.091913306 3.0858981002 3.0858981002 3.0858981002 3.0858981002 3.0798828944 3.0798828944 3.0798828944 3.0798828944 
3.0858981002 3.091913306 3.0979285117 3.1039437175 3.1039437175 3.0979285117 3.0979285117 3.091913306 3.0858981002 
3.0858981002 3.0858981002 3.0798828944 3.0798828944 3.0858981002 3.091913306 3.0979285117 3.0979285117 3.1039437175 
3.1039437175 3.1039437175 3.0979285117 3.091913306 3.0858981002 3.0858981002 3.0858981002 3.0858981002 3.0858981002 
3.0798828944 3.0798828944 3.0858981002 3.091913306 3.0979285117 3.1039437175 3.1039437175 3.1039437175 3.0979285117 
3.091913306 3.0858981002 3.0858981002 3.0858981002 3.0858981002 3.0798828944 3.0798828944 3.0798828944 3.0798828944 
3.0858981002 3.0858981002 3.091913306 3.0979285117 3.1039437175 3.1039437175 3.0979285117 3.091913306 3.0858981002 
3.0858981002 3.0858981002 3.0858981002 3.0798828944 3.0798828944 3.0858981002 3.091913306 3.0979285117 3.1039437175 
3.1039437175 3.1039437175 3.0979285117 3.091913306 3.0858981002 3.0858981002 3.0858981002 3.0798828944 3.0798828944 
3.0858981002 3.091913306 3.0979285117 3.0979285117 3.1039437175 3.1039437175 3.0979285117 3.091913306 3.0858981002 
3.0858981002 3.0858981002 3.0858981002 3.0798828944 3.0798828944 3.0798828944 3.0858981002 3.091913306 3.0979285117 
3.1039437175 3.1039437175 3.1039437175 3.0979285117 3.091913306 3.0858981002 3.0858981002 3.0858981002 3.0798828944 
3.0798828944 3.0858981002 3.091913306 3.0979285117 3.1039437175 3.1039437175 3.1039437175 3.1039437175 3.0979285117 
3.091913306 3.0858981002 3.0858981002 3.0858981002 3.0858981002 3.0798828944 3.0798828944 3.0798828944 3.0858981002 
3.091913306 3.0979285117 3.1039437175 3.1039437175 3.0979285117 3.091913306 3.0858981002 3.0858981002 3.0858981002 
3.0798828944 3.0798828944 3.0798828944 3.0858981002 3.091913306 3.0979285117 3.1039437175 3.1039437175 3.0979285117 
3.091913306 3.0858981002 3.0858981002 3.0858981002 3.0858981002 3.0798828944 3.0798828944 3.0858981002 3.091913306 
3.0979285117 3.1039437175 3.1039437175 3.1099589233 3.1099589233 3.1099589233 3.1099589233 3.1099589233 3.1099589233 
3.1099589233 3.1039437175 3.0979285117 3.091913306 3.0858981002 3.0858981002 3.0858981002 3.0858981002 3.0798828944 
3.0798828944 3.0798828944 3.0858981002 3.091913306 3.0979285117 3.1039437175 3.1099589233 3.1099589233 3.1099589233 
3.1099589233 3.1039437175 3.0979285117 3.091913306 3.091913306 3.0858981002 3.0858981002 3.0858981002 3.0858981002 
3.0798828944 3.0798828944 3.0798828944 3.0858981002 3.091913306 3.0979285117 3.0979285117 3.1039437175 3.1099589233 
3.1099589233 3.1099589233 3.1039437175 3.1039437175 3.0979285117 3.091913306 3.0858981002 3.0858981002 3.0858981002 
3.0798828944 3.0798828944 3.0858981002 3.091913306 3.0979285117 3.1039437175 3.1039437175 3.1099589233 3.1099589233 
3.1099589233 3.1099589233 3.1039437175 3.0979285117 3.0979285117 3.091913306 3.0858981002 3.0858981002 3.0858981002 
3.0858981002 3.0798828944 3.0798828944 3.0798828944 3.0858981002 3.091913306 3.0979285117 3.1039437175 3.1099589233 
3.1099589233 3.1099589233 3.1039437175 3.0979285117 3.091913306 3.0858981002 3.0858981002 3.0858981002 3.0798828944 
3.0798828944 3.0798828944 3.0858981002 3.091913306 3.091913306 3.0979285117 3.1039437175 3.1099589233 3.1099589233 
3.1099589233 3.1039437175 3.0979285117 3.091913306 3.0858981002 3.0858981002 3.0858981002 3.0858981002 3.0798828944 
3.0798828944 3.0858981002 3.091913306 3.0979285117 3.1039437175 3.1099589233 3.1099589233 3.1099589233 3.1039437175 
3.0979285117 3.091913306 3.0858981002 3.0858981002 3.0858981002 3.0798828944 3.0798828944 3.0798828944 3.0858981002 
3.091913306 3.0979285117 3.1039437175 3.1039437175 3.1099589233 3.1099589233 3.1099589233 3.1039437175 3.0979285117 
3.091913306 3.0858981002 3.0858981002 3.0858981002 3.0798828944 3.0798828944 3.0798828944 3.0858981002 3.091913306 
3.0979285117 3.0979285117 3.1039437175 3.1099589233 3.1099589233 3.1099589233 3.1039437175 3.1039437175 3.0979285117 
3.091913306 3.0858981002 3.0858981002 3.0858981002 3.0858981002 3.0798828944 3.0798828944 3.0858981002 3.091913306 
3.0979285117 3.1039437175 3.1099589233 3.1099589233 3.1099589233 3.1099589233 3.1039437175 3.0979285117 3.091913306 
3.0858981002 3.0858981002 3.0858981002 3.0858981002 3.0798828944 3.0798828944 3.0858981002 3.091913306 3.0979285117 
3.1039437175 3.1039437175 3.1099589233 3.1099589233 3.1099589233 3.1039437175 3.0979285117 3.091913306 3.0858981002 
3.0858981002 3.0858981002 3.0858981002 3.0798828944 3.0798828944 3.0798828944 3.0858981002 3.091913306 3.0979285117 
3.1039437175 3.1099589233 3.1099589233 3.1039437175 3.0979285117 3.091913306 3.091913306 3.0858981002 3.0858981002 
3.0858981002 3.0798828944 3.0798828944 3.0858981002 3.0858981002 3.091913306 3.0979285117 3.0979285117 3.1039437175 
3.1099589233 3.1099589233 3.1099589233 3.1099589233 3.1039437175 3.0979285117 3.091913306 3.0858981002 3.0858981002 
3.0858981002 3.0858981002 3.0798828944 3.0798828944 3.0858981002 3.091913306 3.091913306 3.0979285117 3.1039437175 
3.1099589233 3.1099589233 3.1099589233 3.1039437175 3.0979285117 3.091913306 3.0858981002 3.0858981002 3.0858981002 
3.0798828944 3.0738676886 3.0738676886 3.0738676886 3.0738676886 3.0738676886 3.0798828944 3.0858981002 3.091913306 
3.0979285117 3.1039437175 3.1039437175 3.1099589233 3.1099589233 3.1039437175 3.0979285117 3.091913306 3.0858981002 
3.0858981002 3.0858981002 3.0798828944 3.0798828944 3.0738676886 3.0738676886 3.0738676886 3.0738676886 3.0738676886 
3.0738676886 3.0738676886 3.0798828944 3.0858981002 3.091913306 3.0979285117 3.1039437175 3.1099589233 3.1099589233 
3.1039437175 3.0979285117 3.091913306 3.0858981002 3.0858981002 3.0858981002 3.0858981002 3.0798828944 3.0738676886 
3.0738676886 3.0738676886 3.0738676886 3.0798828944 3.0858981002 3.0858981002 3.091913306 3.0979285117 3.1039437175 
3.1099589233 3.1099589233 3.1099589233 3.1099589233 3.1039437175 3.1039437175 3.0979285117 3.091913306 3.0858981002 
3.0858981002 3.0858981002 3.0858981002 3.0798828944 3.0738676886 3.0738676886 3.0798828944 3.0798828944 3.0858981002 
3.091913306 3.0979285117 3.1039437175 3.1099589233 3.1159741291 3.1159741291 3.1159741291 3.1159741291 3.1159741291 
3.1159741291 3.1099589233 3.1039437175 3.0979285117 3.091913306 3.0858981002 3.0858981002 3.0858981002 3.0798828944 
3.0738676886 3.0738676886 3.0738676886 3.0738676886 3.0798828944 3.0858981002 3.091913306 3.0979285117 3.0979285117 
3.1039437175 3.1039437175 3.1099589233 3.1159741291 3.1159741291 3.1159741291 3.1159741291 3.1159741291 3.1099589233 
3.1039437175 3.0979285117 3.091913306 3.0858981002 3.0858981002 3.0858981002 3.0858981002 3.0798828944 3.0738676886 
3.0738676886 3.0798828944 3.0858981002 3.091913306 3.0979285117 3.1039437175 3.1099589233 3.1099589233 3.1159741291 
3.1159741291 3.1159741291 3.1099589233 3.1099589233 3.1039437175 3.0979285117 3.091913306 3.0858981002 3.0858981002 
3.0858981002 3.0798828944 3.0738676886 3.0738676886 3.0738676886 3.0798828944 3.0858981002 3.091913306 3.0979285117 
3.1039437175 3.1099589233 3.1159741291 3.1159741291 3.1159741291 3.1099589233 3.1039437175 3.0979285117 3.091913306 
3.0858981002 3.0858981002 3.0858981002 3.0858981002 3.0798828944 3.0738676886 3.0738676886 3.0738676886 3.0738676886 
3.0798828944 3.0858981002 3.091913306 3.0979285117 3.1039437175 3.1099589233 3.1159741291 3.1159741291 3.1159741291 
3.1159741291 3.1099589233 3.1039437175 3.0979285117 3.091913306 3.0858981002 3.0858981002 3.0858981002 3.0858981002 
3.0858981002 3.0798828944 3.0738676886 3.0738676886 3.0738676886 3.0798828944 3.0858981002 3.091913306 3.091913306 
3.0979285117 3.1039437175 3.1099589233 3.1099589233 3.1159741291 3.1159741291 3.1159741291 3.1099589233 3.1039437175 
3.1039437175 3.0979285117 3.091913306 3.0858981002 3.0858981002 3.0858981002 3.0798828944 3.0738676886 3.0738676886 
3.0738676886 3.0798828944 3.0858981002 3.091913306 3.0979285117 3.1039437175 3.1039437175 3.1099589233 3.1159741291 
3.1159741291 3.1159741291 3.1159741291 3.1099589233 3.1099589233 3.1039437175 3.0979285117 3.091913306 3.0858981002 
3.0858981002 3.0858981002 3.0798828944 3.0738676886 3.0738676886 3.0738676886 3.0798828944 3.0798828944 3.0858981002 
3.091913306 3.0979285117 3.1039437175 3.1099589233 3.1159741291 3.1159741291 3.1159741291 3.1099589233 3.1039437175 
3.0979285117 3.091913306 3.0858981002 3.0858981002 3.0858981002 3.0858981002 3.0798828944 3.0738676886 3.0738676886 
3.0798828944 3.0858981002 3.091913306 3.0979285117 3.1039437175 3.1099589233 3.1099589233 3.1159741291 3.1159741291 
3.1159741291 3.1159741291 3.1099589233 3.1039437175 3.0979285117 3.091913306 3.0858981002 3.0858981002 3.0858981002 
3.0858981002 3.0798828944 3.0738676886 3.0738676886 3.0738676886 3.0798828944 3.0858981002 3.091913306 3.0979285117 
3.0979285117 3.1039437175 3.1039437175 3.1099589233 3.1159741291 3.1159741291 3.1099589233 3.1039437175 3.0979285117 
3.0979285117 3.091913306 3.0858981002 3.0858981002 3.0858981002 3.0798828944 3.0738676886 3.0738676886 3.0798828944 
3.0858981002 3.091913306 3.0979285117 3.1039437175 3.1099589233 3.1099589233 3.1159741291 3.1159741291 3.1159741291 