# vtk DataFile Version 4.2
vtk output
ASCII
DATASET UNSTRUCTURED_GRID
POINTS 1740 double
2144.07 -94.44003 0 2911 0 0 16.54298 -37.82236 0 
5.09149 -21.30132 0 1.27433 -10.75385 0 0 0 0 
2.54575 15.14293 0 6.36291 23.76126 0 14.00014 34.89063 0 
30.50239 50.70793 0 33.39435 -52.93479 0 2050.91 -103.7862 0 
60.1465 -69.72165 0 88.83633 -83.2817 0 118.7656 -94.71113 0 
153.4168 -105.7022 0 199.5806 -117.771 0 261.4466 -130.7139 0 
345.846 -144.1892 0 460.3522 -157.0592 0 608.4185 -167.1903 0 
783.2313 -172.4016 0 941.0559 -172.4533 0 1063.409 -170.1096 0 
1164.153 -166.8746 0 1263.449 -162.682 0 1375.468 -156.8941 0 
1513.293 -148.414 0 1665.281 -137.5317 0 1791.864 -127.3721 0 
2195.451 -89.09491 0 2273.924 -80.67077 0 2383.731 -68.3513 0 
2517.64 -52.47337 0 2649.227 -35.9232 0 2740.773 -23.82991 0 
2804.387 -15.13419 0 2848.802 -8.916218 0 2881.944 -4.196067 0 
56.61447 67.79801 0 84.09687 81.25172 0 112.4783 92.48395 0 
142.1748 102.3504 0 174.8563 111.6168 0 213.124 120.8806 0 
260.3759 130.5151 0 324.6539 141.1779 0 418.1422 152.9178 0 
535.6656 162.9871 0 690.9154 170.4255 0 902.6513 172.7852 0 
1100.32 169.0517 0 1270.99 162.3262 0 1462.794 151.6837 0 
1631.287 140.0952 0 1747.993 131 0 1922.788 115.9027 0 
2069.56 101.951 0 2128.804 96.0021 0 2297.147 78.11721 0 
2414.379 64.80104 0 2554.023 47.99319 0 2673.693 32.73885 0 
2757.97 21.50315 0 2814.297 13.7575 0 2852.02 8.460961 0 
2882.272 4.148909 0 1791.052 127.4402 0 1366.894 157.3738 0 
1444.38 -152.8302 0 1547.039 146.1296 0 1589.287 -143.1614 0 
1878.731 119.8675 0 1997.072 108.9828 0 1185.654 166.0472 0 
1882.536 -119.5292 0 1971.323 -111.4145 0 1684.777 136.0292 0 
2099.317 -98.9855 0 2234.809 84.9091 0 2181.695 90.53914 0 
1728.573 -132.5703 0 1718.815 133.3509 0 1834.825 123.7132 0 
1960.305 112.4444 0 2033.69 105.4648 0 2099.184 98.99892 0 
2214.291 -73.214056967 396.8421 2955.512 16.153851946 396.8421 158.0786 -26.076180876 396.8421 
147.0109 -10.227542618 396.8421 143.3217 -0.087727207267 396.8421 142.09 10.266673272 396.8421 
144.5505 24.873880297 396.8421 148.2398 33.201819871 396.8421 155.621 43.97270232 396.8421 
171.5701 59.314500078 396.8421 174.3652 -40.534143549 396.8421 2124.254 -82.210633522 396.8421 
200.2206 -56.544809892 396.8421 227.9488 -69.434993878 396.8421 256.8748 -80.265654885 396.8421 
290.3647 -90.64671301 396.8421 334.981 -101.99938105 396.8421 394.7733 -114.10594187 396.8421 
476.3434 -126.6040228 396.8421 587.0114 -138.3689198 396.8421 730.1145 -147.3526763 396.8421 
899.0676 -151.52636899 396.8421 1051.602 -150.88304167 396.8421 1169.853 -148.1381279 396.8421 
1267.221 -144.65536212 396.8421 1363.188 -140.28751615 396.8421 1471.452 -134.38029227 396.8421 
1604.657 -125.86366719 396.8421 1751.55 -115.07789355 396.8421 1873.891 -105.106467 396.8421 
2263.949 -68.085125507 396.8421 2339.792 -60.023647955 396.8421 2445.918 -48.278737457 396.8421 
2575.338 -33.210085119 396.8421 2702.515 -17.575339623 396.8421 2790.992 -6.1916017982 396.8421 
2852.473 1.9749174787 396.8421 2895.4 7.8054393743 396.8421 2927.431 12.226737317 396.8421 
196.807 75.940091995 396.8421 223.3682 89.068555651 396.8421 250.7983 100.060449 396.8421 
279.4994 109.7425689 396.8421 311.0855 118.86242958 396.8421 348.0705 128.01011243 396.8421 
393.7383 137.56368741 396.8421 455.8617 148.19933016 396.8421 546.2162 160.02409738 396.8421 
659.8003 170.34808287 396.8421 809.846 178.29453331 396.8421 1014.485 181.54346486 396.8421 
1205.528 178.7528686 396.8421 1370.477 172.87797967 396.8421 1555.851 163.19116202 396.8421 
1718.696 152.41525464 396.8421 1831.49 143.85771771 396.8421 2000.426 129.51376496 396.8421 
2142.278 116.1368737 396.8421 2199.537 110.40327995 396.8421 2362.236 93.072526748 396.8421 
2475.539 80.088554443 396.8421 2610.501 63.615113102 396.8421 2726.16 48.591970749 396.8421 
2807.613 37.487450494 396.8421 2862.05 29.814598309 396.8421 2898.509 24.560063726 396.8421 
2927.749 20.277755805 396.8421 1873.106 140.48975134 396.8421 1463.165 168.40563343 396.8421 
1538.054 -130.28322358 396.8421 1637.272 158.04785303 396.8421 1678.104 -120.64158703 396.8421 
1957.846 133.29526411 396.8421 2072.22 122.89200276 396.8421 1288 176.17178313 396.8421 
1961.524 -97.458426438 396.8421 2047.334 -89.58313064 396.8421 1770.393 148.59876515 396.8421 
2171.038 -77.584861905 396.8421 2301.989 99.669489165 396.8421 2250.655 105.12382351 396.8421 
1812.721 -110.19834248 396.8421 1803.29 146.07647609 396.8421 1915.411 136.95365366 396.8421 
2036.686 126.20771363 396.8421 2107.61 119.51554748 396.8421 2170.909 113.29374473 396.8421 
2284.511 -54.822134349 793.6842 3000.027 30.19045416 793.6842 299.6143 -15.063443393 793.6842 
288.9304 0.14744862331 793.6842 285.3691 9.8967319806 793.6842 284.1801 19.865439129 793.6842 
286.5551 33.950203646 793.6842 290.1167 41.992040423 793.6842 297.2417 52.406174384 793.6842 
312.6379 67.26726708 793.6842 315.336 -28.90783404 793.6842 2197.597 -63.485416527 793.6842 
340.2947 -44.199565193 793.6842 367.0612 -56.476656931 793.6842 394.9839 -66.76495347 793.6842 
427.3123 -76.598963728 793.6842 470.3812 -87.316817631 793.6842 528.0998 -98.692478187 793.6842 
606.8411 -110.35214992 793.6842 713.6708 -121.1924668 793.6842 851.8104 -129.24929186 793.6842 
1014.904 -132.62629622 793.6842 1162.147 -131.48600983 793.6842 1276.298 -128.4792347 793.6842 
1370.288 -124.85343898 793.6842 1462.927 -120.4040002 793.6842 1567.436 -114.47140869 793.6842 
1696.021 -106.01480818 793.6842 1837.82 -95.406338733 793.6842 1955.917 -85.668108649 793.6842 
2332.447 -49.894505492 793.6842 2405.659 -42.164557049 793.6842 2508.105 -30.933074073 793.6842 
2633.037 -16.570060668 793.6842 2755.801 -1.7160658676 793.6842 2841.209 9.0718782266 793.6842 
2900.561 16.798279741 793.6842 2941.997 22.308624081 793.6842 2972.917 26.483976562 793.6842 
336.9995 83.411316265 793.6842 362.6396 96.191654306 793.6842 389.1182 106.91655623 793.6842 
416.8239 116.38443396 793.6842 447.3145 125.32297192 793.6842 483.0167 134.31193199 793.6842 
527.1009 143.72978502 793.6842 587.0697 154.26094886 793.6842 674.2905 166.05413475 793.6842 
783.9349 176.48212291 793.6842 928.7766 184.73419251 793.6842 1126.317 188.59942945 793.6842 
1310.735 186.50952939 793.6842 1469.963 181.29294635 793.6842 1648.908 172.37154378 793.6842 
1806.105 162.27010132 793.6842 1914.987 154.17285701 793.6842 2078.064 140.49899897 793.6842 
2214.996 127.6607112 793.6842 2270.269 122.13723359 793.6842 2427.326 105.37806678 793.6842 
2536.699 92.768439026 793.6842 2666.98 76.714298178 793.6842 2778.628 62.026940151 793.6842 
2857.255 51.145786719 793.6842 2909.806 43.616222355 793.6842 2945.001 38.455002475 793.6842 
2973.224 34.246015774 793.6842 1955.16 150.97234449 793.6842 1559.437 177.20162321 793.6842 
1631.729 -110.39206075 793.6842 1727.505 167.5662618 793.6842 1766.921 -100.86715274 793.6842 
2036.96 144.11416286 793.6842 2147.368 134.15285104 793.6842 1390.347 184.25335897 793.6842 
2040.511 -78.233825464 793.6842 2123.346 -70.605359876 793.6842 1856.009 158.66559108 793.6842 
2242.759 -59.027733811 793.6842 2369.167 111.76790086 793.6842 2319.614 117.04148845 793.6842 
1896.869 -90.633872609 793.6842 1887.765 156.2773545 793.6842 1995.998 147.60503658 793.6842 
2113.066 137.33295471 793.6842 2181.531 130.91003756 793.6842 2242.634 124.92319546 793.6842 
2354.732 -38.904742876 1190.526 3044.539 42.256030771 1190.526 441.15 -4.8531906662 1190.526 
430.8497 9.7476808731 1190.526 427.4164 19.119930878 1190.526 426.2701 28.713594702 1190.526 
428.5601 42.285748585 1190.526 431.9934 50.044273786 1190.526 438.8627 60.102127697 1190.526 
453.7057 74.476567266 1190.526 456.3069 -18.117185109 1190.526 2270.94 -47.245075258 1190.526 
480.3688 -32.73658454 1190.526 506.1737 -44.446897935 1190.526 533.0934 -54.238900878 1190.526 
564.26 -63.577302746 1190.526 605.7815 -73.726563438 1190.526 661.4265 -84.456860087 1190.526 
737.3385 -95.390459644 1190.526 840.33 -105.45105271 1190.526 973.5064 -112.75669468 1190.526 
1130.74 -115.52759385 1190.526 1272.693 -114.04533793 1190.526 1382.742 -110.88526442 1190.526 
1473.356 -107.19778397 1190.526 1562.666 -102.7393053 1190.526 1663.42 -96.853554922 1190.526 
1787.385 -88.531687687 1190.526 1924.09 -78.163119388 1190.526 2037.944 -68.693570654 1190.526 
2400.946 -34.168376876 1190.526 2471.527 -26.748653521 1190.526 2570.292 -15.988017959 1190.526 
2690.735 -2.2578670513 1190.526 2809.091 11.910183457 1190.526 2891.43 22.182598569 1190.526 
2948.647 29.531783794 1190.526 2988.597 34.769342317 1190.526 3018.403 38.736094666 1190.526 
477.1918 90.123093776 1190.526 501.9109 102.53475071 1190.526 527.4382 112.96930506 1190.526 
554.1485 122.19694146 1190.526 583.5435 130.92426545 1190.526 617.963 139.71850209 1190.526 
660.4633 148.95473402 1190.526 718.2775 159.31731521 1190.526 802.3645 170.98356627 1190.526 
908.0698 181.39369108 1190.526 1047.707 189.79012939 1190.526 1238.151 194.05760996 1190.526 
1415.942 192.48087356 1190.526 1569.449 187.77494392 1190.526 1741.965 179.47396037 1190.526 
1893.514 169.94150041 1190.526 1998.484 162.24539949 1190.526 2155.702 149.17702232 1190.526 
2287.714 136.84756665 1190.526 2341.001 131.52905767 1190.526 2492.415 115.3499294 1190.526 
2597.858 103.14197718 1190.526 2723.46 87.564133813 1190.526 2831.095 73.283855597 1190.526 
2906.899 62.68931069 1190.526 2957.56 55.351568354 1190.526 2991.49 50.318996271 1190.526 
3018.699 46.213330086 1190.526 2037.214 159.19375225 1190.526 1655.708 183.98914892 1190.526 
1725.403 -92.831287311 1190.526 1817.738 174.95116375 1190.526 1855.738 -83.492418012 1190.526 
2116.075 152.63936713 1190.526 2222.516 143.08849503 1190.526 1492.694 190.47392252 1190.526 
2119.498 -61.488528913 1190.526 2199.357 -54.113623633 1190.526 1941.625 166.52026018 1190.526 
2314.479 -42.951352025 1190.526 2436.346 121.52543132 1190.526 2388.573 126.61598549 1190.526 
1981.017 -73.517295548 1190.526 1972.24 164.24918185 1190.526 2076.584 155.97795356 1190.526 
[...]
POINT_DATA 1740
FIELD FieldData 1
Pressure 1 1740 double
3.103945718 3.0183152752 3.0095055048 2.9860556175 2.9783428974 2.9574350052 2.97063295 2.9879268473 3.0192024404 
3.0328869219 3.0110961377 3.1077796129 3.0342810893 3.0487573177 3.0658852748 3.0652910973 3.0823990905 3.0875164291 
3.1086404594 3.113369997 3.1319899511 3.1402544494 3.1419454905 3.1476240164 3.1420422779 3.1378854772 3.1345132029 
3.1307171705 3.1240851679 3.1184784568 3.1013498287 3.0980990167 3.0925426096 3.0846781377 3.0738848773 3.0640422382 
3.0540427108 3.0456317699 3.0365164447 3.0688968177 3.080913458 3.0933542531 3.1062214609 3.1121697376 3.1192982125 
3.1265708343 3.1345125584 3.1503053141 3.163223652 3.1796879591 3.1907471162 3.1976296672 3.2038422868 3.2096364083 
3.2138291734 3.2170114168 3.2179379094 3.2283058395 3.0984787858 3.0871332982 3.0814395975 3.0724675099 3.062756668 
3.0522611321 3.0416540161 3.0345216726 3.0317374352 3.2169119472 3.2072930744 3.1332548912 3.2110719977 3.1273702033 
3.2177411219 3.219664475 3.2044605023 3.1147422889 3.1111462431 3.2149678365 3.1057824006 3.0899259298 3.0867974405 
3.1211288649 3.2165835283 3.2174324568 3.218872039 3.2192478281 3.1625461395 3.1008689542 3.023382498 3.0272753242 
3.000691471 3.00762438 2.9855615039 2.9934580344 3.0054213281 3.0337812016 3.0519161731 3.0360822085 3.1050949212 
3.0562925258 3.06884426 3.0819959187 3.0858631142 3.1013473044 3.1106265543 3.1240401032 3.1287784459 3.1393016717 
3.1430591093 3.1464541166 3.1464366008 3.1414600412 3.1368189465 3.1312877813 3.1271140738 3.1210554517 3.115613908 
3.0985260534 3.0945933091 3.0889768223 3.0812104074 3.0703709615 3.0605330308 3.0508407018 3.0434608328 3.02762564 
3.0849868856 3.1058156177 3.117575176 3.1262969218 3.135247616 3.1401502384 3.1456010038 3.1556081721 3.167817755 
3.1772860833 3.1864734107 3.1945310834 3.2011135186 3.207665374 3.2110592381 3.2141470458 3.2170473714 3.219459809 
3.1053150875 3.0922471401 3.0899779222 3.0843022464 3.0760031851 3.0656822317 3.0555887468 3.0452552849 3.0389526128 
3.0396252472 3.2177673892 3.2094164109 3.1301873755 3.2136385369 3.1237890398 3.219051753 3.2201889774 3.2061828152 
3.1117916092 3.1081864478 3.2155258839 3.103192298 3.0920226066 3.0906820847 3.1185317379 3.2163401308 3.2178589096 
3.2196238921 3.2256022024 3.0852017738 3.0986258099 3.0238743634 3.0279165943 3.0003607912 3.001645024 2.9838270378 
2.996326572 3.0098342961 3.0387774136 3.0596242285 3.0446856955 3.1026852413 3.0595082791 3.078513519 3.0964764994 
3.1025188384 3.1156415578 3.1236253518 3.1360566161 3.1417833537 3.1490037007 3.1509956356 3.1497716348 3.1475270227 
3.1407862786 3.1350995313 3.1296239091 3.1241204788 3.1186033074 3.113579838 3.0963239966 3.092566742 3.0868104308 
3.0791814546 3.0682477194 3.0582943066 3.0491550705 3.0421594583 3.0283615725 3.0921501192 3.1138319346 3.1317994185 
3.1410806977 3.1530079472 3.160987919 3.1706570896 3.1749015974 3.1834642103 3.1934969641 3.1987561013 3.2045286528 
3.2074556167 3.214263623 3.2169860383 3.2179284395 3.2198818989 3.2226049238 3.0908269414 3.0950881305 3.0913495597 
3.0860763393 3.0782499639 3.0675087179 3.0577213561 3.0477841523 3.0405796599 3.0423790897 3.2206758883 3.2158466718 
3.1274248936 3.2178878812 3.1212458978 3.2213839289 3.220925741 3.2116313073 3.1097152038 3.1058721982 3.2184522648 
3.1009553112 3.0938277104 3.0953468328 3.1160714046 3.2189605813 3.2210564044 3.2220066354 3.1096667376 3.0951925935 
3.0968786253 3.0245799935 3.0285170498 3.0001832075 3.0023499018 2.9820381775 2.992008233 3.0066147056 3.0394836084 
3.060662722 3.0447468202 3.1008901937 3.0650707714 3.0826333517 3.1020166321 3.110194963 3.1229601987 3.1303088761 
3.1430875025 3.1496011904 3.1558175383 3.1557236058 3.1528065661 3.1481856577 3.1406118977 3.1345105148 3.1286118061 
3.1227156024 3.116730607 3.111639289 3.094625026 3.0909112936 3.0854562621 3.0778661813 3.0672773197 3.0573628633 
3.048676356 3.0416635861 3.0286802536 3.0957685661 3.1192521396 3.1342389584 3.1465387375 3.1533528734 3.1648588955 
3.1773471913 3.1865150461 3.1945749865 3.2051575184 3.2107003733 3.2153731483 3.2166299052 3.2225795806 3.2249476697 
3.2250159385 3.2262336592 3.2278240953 3.0929100699 3.0923667464 3.0910749337 3.0864148766 3.078793593 3.068495173 
3.0587603768 3.0492153303 3.0417515553 3.0434066266 3.2263836615 3.2237793676 3.1261717311 3.2253023785 3.1195885559 
3.2268673217 3.1111501929 3.2200923356 3.1079251603 3.1040559321 3.2252659098 3.0990489232 3.0926868087 3.0933483187 
3.1140876406 3.2254127685 3.2267490281 3.2284499859 3.0903825854 3.092186017 3.0955688853 3.0245827126 3.0304663132 
3.000793432 3.0060749617 2.9855677032 2.9935262348 3.0073233639 3.0411317147 3.0616842948 3.0463543933 3.0995183328 
3.0680496981 3.0855149822 3.1027902302 3.112251024 3.1252324468 3.1353964519 3.1459138653 3.1529173936 3.159450298 
3.1580147609 3.1535030532 3.147312082 3.1393294465 3.1330256051 3.1269073863 3.1211913949 3.1153024809 3.1099700626 
3.0932838591 3.0895438474 3.084324927 3.0767940176 3.0665154272 3.0568098028 3.0483772612 3.0412130855 3.0289372884 
3.0969458144 3.1207808073 3.1356668492 3.1486269706 3.1579342587 3.1690899635 3.1803742801 3.1860069263 3.1970769891 
3.2100145049 3.2192839886 3.223273524 3.2253747231 3.2306140392 3.2326332231 3.2322859369 3.2332772311 3.2390051101 
3.090273034 3.0919540085 3.0904135855 3.0857174523 3.0780510229 3.0679961364 3.0584232751 3.0490000199 3.041497669 
3.0435624258 3.2335102986 3.2320067158 3.1246911551 3.2326930742 3.118111424 3.2335186198 3.0810120769 3.2285376893 
3.1063147624 3.10254139 3.2325506356 3.0975719081 3.091988476 3.0922248804 3.112556053 3.232685723 3.2337552009 
3.1556725911 3.0879324944 3.0914854616 3.0942255973 3.0234418616 3.0315145304 3.0018441315 3.0072534845 2.9862627518 
2.9947941852 3.0084970617 3.0417553196 3.0632521445 3.0478060593 3.0981954302 3.0697437537 3.0879787952 3.1041894098 
3.1142016837 3.1271402148 3.1382319655 3.1490080691 3.1567131348 3.1623032881 3.1597342064 3.1536405294 3.1460306484 
3.1379167999 3.1314976019 3.1253674534 3.1195768733 3.1137917156 3.1085130225 3.091978467 3.0883009023 3.0832526346 
3.0758092948 3.0657229104 3.0561246236 3.0478740984 3.0405848774 3.0292915863 3.0979292636 3.1221555917 3.1370602091 
3.150094913 3.1592781288 3.171052384 3.1836209243 3.1907082921 3.2020036372 3.2146483163 3.2254741843 3.2311148568 
3.2335032383 3.2396404876 3.2409248892 3.2400089893 3.2404375375 3.2415158591 3.0897842059 3.0898022519 3.0880310052 
3.0832336901 3.0756254028 3.0658637153 3.0565016619 3.047244531 3.0397509091 3.0417951143 3.2406268749 3.2401896637 
3.1231115911 3.2405292556 3.1165965134 3.240256457 3.0877017658 3.2366687875 3.1048880603 3.1012543528 3.2398190802 
3.0961876496 3.0898871406 3.0900110555 3.1110775978 3.2399904758 3.240924904 3.0825802117 3.0889521771 3.0899653054 
3.0932476429 3.0218250742 3.0318769347 3.0019414558 3.0062614481 2.9857983289 2.9947240253 3.0086243592 3.0416578487 
3.0636454084 3.0487441863 3.0971757918 3.0707398349 3.0894125324 3.1054525476 3.1158458449 3.1288554451 3.1405749824 
3.151115101 3.158985959 3.1646756449 3.1609961267 3.1534567155 3.1448136299 3.1368589629 3.1303928509 3.124355776 
3.1182988247 3.1126491008 3.1074452274 3.0910264928 3.0873895936 3.0824199651 3.0750745635 3.065094492 3.0555095512 
3.0473671863 3.0399897835 3.0296034732 3.0981968464 3.1226222839 3.137896029 3.1509681594 3.1605531502 3.1723575851 
3.1847758461 3.192669049 3.2043715464 3.2181731843 3.2298285474 3.2369472914 3.2408115633 3.2472843409 3.249003553 
3.2485774162 3.24830113 3.1228624112 3.0871789949 3.0866850171 3.0841234452 3.0793439621 3.0718527297 3.0624718117 
3.053340752 3.0443745907 3.0369269975 3.0393225636 3.2483072721 3.2487034465 3.1219436385 3.2491154303 3.1153972731 
3.2460136365 3.0850951319 3.2443560314 3.1038291945 3.1002628897 3.2481460231 3.0952800146 3.0859530857 3.0859933003 
3.1099010314 3.2479774046 3.2485550504 3.0872213904 3.0864166041 3.0873553763 3.0926431869 3.0205338845 3.0321123055 
3.0021501606 3.0060446229 2.9859189592 2.9947847857 3.0086478679 3.0416955708 3.0637375192 3.0493086756 3.0965850647 
3.0713934203 3.090222164 3.1061489301 3.1168411735 3.1299609373 3.1421724335 3.1525621425 3.1605746853 3.1663353582 
3.1617688967 3.1530899507 3.1438912761 3.1361836575 3.1296744845 3.1237079687 3.1172716395 3.1118888162 3.1066883227 
3.0904364876 3.0868534533 3.0819438716 3.0746567598 3.0647392714 3.055117616 3.0470250192 3.0395799296 3.0297864539 
3.0982071434 3.1228328428 3.1381976263 3.1513521155 3.1611291753 3.172997509 3.1854873196 3.1940599802 3.2060578499 
3.2201972486 3.2326804224 3.2413382056 3.2464780234 3.2538901771 3.2566622532 3.2564157771 3.2563335953 3.1236423812 
3.0837888273 3.0833190054 3.0804103787 3.0757864318 3.0685537171 3.0594335562 3.0504429665 3.0418102427 3.0344891413 
3.0370020938 3.2565616928 3.2558888854 3.1210165913 3.2566186468 3.1145482821 3.2544640532 3.0820371884 3.2504174683 
3.1031338071 3.0996355698 3.2562081956 3.0945892817 3.0822380582 3.0826556102 3.1091570022 3.2559759071 3.2571858431 
3.0863338034 3.0831217366 3.0837464681 3.0923254619 3.0200062975 3.0324298034 3.0024541153 3.0061648999 2.9861230117 
2.9951069075 3.0089319478 3.0418849268 3.0640107587 3.0496886933 3.0961559919 3.0718868488 3.0907613848 3.106548867 
3.117487182 3.1307274973 3.1433467797 3.1536288838 3.1617506523 3.1676405336 3.1623758344 3.1527621137 3.1433819448 
3.1358884231 3.1292753068 3.123402168 3.1168013784 3.1115762459 3.1063768473 3.0901417568 3.0866197494 3.0817693025 
3.0744928227 3.0646140015 3.0548808747 3.0468151538 3.0393350759 3.0297292036 3.0983848197 3.123102242 3.1384601112 
3.1516658959 3.161559386 3.1734965136 3.185963625 3.1949890891 3.2073307786 3.2217030516 3.234622339 3.2444434648 
3.2505577811 3.2587806175 3.2628641207 3.2631481476 3.2637398612 3.1340380298 3.081388238 3.0804384713 3.0778870891 
3.073518704 3.0666711855 3.0576167672 3.0487487901 3.0403096205 3.0331526275 3.0356284034 3.263980756 3.2611716483 
3.1205958127 3.2633142692 3.1141907172 3.2620100734 3.0808380601 3.2548750139 3.102837983 3.0994174117 3.2631138458 
3.0941635491 3.0796969888 3.0798886984 3.1088375054 3.2631159472 3.2646360633 3.0829365579 3.0806076291 3.0814854159 
3.0922478898 3.0199244899 3.0327357704 3.0028097086 3.0065360655 2.9863356694 2.9954744075 3.0092735164 3.0421424535 
3.0643788793 3.0498731922 3.0960302677 3.0721483237 3.0912154293 3.1070004753 3.1181831402 3.1312968136 3.1441972218 
3.154414341 3.1625831361 3.1687536717 3.1630191444 3.1527605398 3.1433298681 3.1359630428 3.1292549947 3.1234276091 
3.1168589642 3.1116222058 3.1063562858 3.0901138066 3.0865974649 3.0817867141 3.0744956799 3.0646328558 3.054799096 
3.046735811 3.0392436627 3.0296043691 3.0987143723 3.1235057189 3.1387907798 3.1520397818 3.1620347315 3.1740124151 
3.1864660724 3.1958113201 3.2084574405 3.2229623331 3.2361465538 3.2464818456 3.2533271634 3.2622279806 3.2667214101 
3.2682045451 3.2689561375 3.1499071695 3.0784620211 3.0783669774 3.0755947316 3.0715183919 3.065157143 3.0561839584 
3.0475120012 3.0392396684 3.0322643031 3.0346389728 3.2694333 3.2649885146 3.1206557927 3.2679721827 3.1142331066 
3.2664282715 3.078088931 3.2579531915 3.1028481053 3.0994501573 3.2685205902 3.0940239825 3.0772180236 3.0771030613 
3.1088440392 3.2685752296 3.2701501448 3.0814001217 3.0782413157 3.0786224431 3.0924093478 3.019861313 3.0330550785 
3.0032022606 3.007210141 2.9866129115 2.9958529123 3.0096241456 3.0424701491 3.0648019329 3.0499725694 3.0962293845 
3.0722454765 3.0911907136 3.1069770705 3.1183334455 3.1315599817 3.1446647631 3.1549910706 3.1631899095 3.1697788039 
3.1638327311 3.1531914385 3.1437284206 3.136404927 3.1296619871 3.1238252917 3.1172469621 3.111955003 3.1066309632 
3.0903285662 3.0867977479 3.0819720876 3.0746676591 3.0648033861 3.0549470364 3.0468585127 3.03933489 3.0298311668 
3.0991704765 3.1239873022 3.1393421927 3.152611207 3.1626667471 3.1746507097 3.187079711 3.1966692691 3.2095968158 
3.2241120282 3.2375202684 3.2480923506 3.2552557773 3.264695603 3.2695506843 3.2716142463 3.2727967668 3.1714141731 
3.0758523284 3.0755055381 3.0736120628 3.0694796573 3.0631575597 3.0542510503 3.0457404281 3.0376396096 3.0309073155 
3.0331273549 3.2735665539 3.2676327679 3.1210401331 3.2710687411 3.1145971924 3.2699848449 3.0756483155 3.2600410025 
3.1031268888 3.0995432084 3.2721679803 3.0941429002 3.0750759316 3.0748239575 3.1091394703 3.2723535765 3.2741521267 
3.0828184216 3.0758105975 3.0762286198 3.0929528178 3.0195753271 3.0333679254 3.0036262567 3.0081687677 2.9869897273 
2.9962151126 3.0099729004 3.0428550991 3.0652962798 3.0498748427 3.0969487006 3.072064605 3.091069391 3.1068447203 
3.1183628353 3.1316586858 3.1448578537 3.1553796062 3.1636690611 3.1708324681 3.1649364452 3.154127587 3.1446366015 
3.1372666157 3.1304706952 3.1245808575 3.1179633264 3.112590696 3.1072130206 3.090872123 3.0872684335 3.0823833742 
3.0750362397 3.0651524329 3.0552273482 3.0471138586 3.0395494632 3.0302623458 3.0997422494 3.1245457374 3.1400858741 
3.1534104508 3.1635311708 3.1755144411 3.1878970737 3.1976787785 3.2108691913 3.2252931687 3.2388435196 3.2495713113 
3.256801275 3.2664291596 3.2715689856 3.2739426276 3.2754397506 3.1857413206 3.0719383789 3.0715342249 3.0706354624 
3.0665637849 3.0601836389 3.051466998 3.0431322462 3.0352105431 3.028807093 3.0308515581 3.2763783698 3.2696147008 
3.1217604837 3.2732018294 3.1152759413 3.2745662631 3.0726287952 3.2616200897 3.1036763575 3.1001951474 3.274603096 
3.0947666557 3.0718692773 3.0715899837 3.1097483992 3.2749137442 3.2765227179 3.0822489047 3.0720904456 3.0727963864 
3.0936685666 3.0193882428 3.0337495394 3.0040309073 3.0090671188 2.9873233305 2.9966088864 3.0103670793 3.0433405703 
3.0658807397 3.0494611529 3.0977124856 3.0716226583 3.0906422299 3.1065335572 3.1182389883 3.1315045489 3.1448345789 
3.1555049019 3.1643332949 3.1719727511 3.1663459967 3.1555905886 3.1459217965 3.1384392594 3.1315394806 3.125566378 
3.1189063222 3.1134257918 3.1079728807 3.0915129661 3.0878446412 3.0829270429 3.0754838218 3.0655605932 3.0555627355 
3.0474103748 3.0398116836 3.03062938 3.1005088186 3.125200782 3.141136853 3.1545416392 3.1646962719 3.176671055 
3.1890184581 3.19892933 3.2123661592 3.2266258363 3.2402155424 3.2510569199 3.2582321136 3.2678035488 3.273252279 
3.2757429056 3.2773372238 3.1684627088 3.0685235445 3.0686036526 3.0673447904 3.0633321488 3.0570202133 3.0486467648 
3.0405041963 3.032819719 3.0269273768 3.0285425933 3.2782349163 3.2711857396 3.1227204427 3.2749423998 3.1161584166 
3.2778214543 3.0683718494 3.2629934995 3.1044001443 3.1009217136 3.2764463761 3.09551998 3.0686271752 3.0684691926 
3.1105374709 3.2767752533 3.2788495899 3.0756944083 3.0684448252 3.0687269136 3.0943086412 3.019959196 3.0342112094 
3.0045352451 3.0099491423 2.9878210038 2.997124834 3.0108900162 3.0441654614 3.0666821319 3.0489644417 3.0983588115 
3.0710841906 3.0900497055 3.1060694483 3.117963144 3.1312272177 3.1444429028 3.1558711116 3.1643774808 3.1729720943 
3.1678737913 3.157446833 3.1473742306 3.1397006474 3.1326587197 3.126554947 3.1198875409 3.114230877 3.108738456 
3.0921027441 3.0883945773 3.0834438643 3.0759112494 3.0659345486 3.0558766381 3.0476681486 3.0400594963 3.0306741632 
3.1015715681 3.1261407888 3.1423577957 3.155928105 3.1661262062 3.1780978246 3.1904494984 3.2004750164 3.2141254846 
3.2281211776 3.2417202686 3.2524810813 3.2596166003 3.2690551407 3.2746159053 3.2772645846 3.2788752593 3.1286954495 
3.0664045425 3.0660161393 3.0654195011 3.0617790903 3.0559564467 3.0477067853 3.039676299 3.032310092 3.0266730002 
3.0283606335 3.2800790111 3.2725231815 3.1237213276 3.2763748515 3.1169959957 3.2794329535 3.0675581915 3.2642878198 
3.1050800156 3.101551691 3.2779989521 3.0962003117 3.0665961018 3.0663738692 3.1113021266 3.2783217392 3.2801150988 
3.0695093328 3.0673785062 3.0663240665 3.0949385026 3.0211179573 3.0347835282 3.0051750108 3.0112839876 2.9887629288 
2.9979241068 3.0116655936 3.045250258 3.0676949414 3.0482802586 3.0990198112 3.0702412801 3.0891658058 3.1053275028 
3.1173959994 3.1305335701 3.1438724117 3.1557630916 3.1657557158 3.1736104076 3.1694629962 3.1596182579 3.1488653469 
3.1408826664 3.1336320043 3.1272818816 3.1207476373 3.1148824219 3.1094598674 3.0926616599 3.0889458323 3.0839287575 
3.076323053 3.0662498819 3.0561421625 3.0478516024 3.0402077497 3.0302684735 3.1027573453 3.1272403956 3.1438319628 
3.1575522793 3.1677822121 3.1796891249 3.1920707584 3.2022370873 3.2159176547 3.229713236 3.2431302626 3.2541616116 
3.2611974461 3.2704292997 3.2764621903 3.2793655912 3.2811934804 3.0707437593 3.0687890126 3.0681871233 3.0677020198 
3.0641965253 3.0586656941 3.0500964713 3.0419977198 3.0346830936 3.0291145736 3.0302497379 3.280569123 3.2739519621 
3.1245930124 3.2782621567 3.1177056485 3.2827260735 3.0675348595 3.2657122814 3.1056591837 3.1021542006 3.2799503667 
3.0968584511 3.0690796504 3.069203309 3.112002851 3.2804144639 3.288644048 3.0666422766 3.0685222325 3.0686999611 
3.0954739641 3.0224818232 3.0339762355 3.0047583614 3.0118394917 2.9891447627 2.9985308079 3.0122774381 3.0451503718 
3.068201378 3.0468356819 3.0995987674 3.0682659306 3.0873567895 3.1038221025 3.1162402161 3.1293343699 3.141975136 
3.1554964368 3.1646474265 3.174472447 3.1717698558 3.1623489499 3.1504338364 3.1419900187 3.1344098893 3.1278124504 
3.1213911327 3.1158645633 3.1102965587 3.0931440674 3.0894193487 3.0843534734 3.0766413911 3.0664289498 3.0562314253 
3.0478681176 3.0401436403 3.0289937314 3.1037747268 3.1282387771 3.1452185445 3.1590269467 3.1693838751 3.1814594208 
3.1937337331 3.2040855663 3.2177827656 3.2315647452 3.2453966444 3.2560712592 3.2632879028 3.272757135 3.2799583497 
3.2827191623 3.2825723332 3.0692957125 3.07361015 3.0733662349 3.0723053788 3.0687015259 3.0630783645 3.054270439 
3.0462096376 3.0386311692 3.0328297096 3.0340526131 3.2846020953 3.2765874636 3.1253360209 3.281490281 3.1184181561 
3.2725365503 3.0719693252 3.2676649428 3.1065870902 3.1027542776 3.2828079281 3.0974256523 3.0736882661 3.074051463 
3.1129477664 3.2829690559 3.3024455088 3.0694606466 3.072984933 3.0736871484 3.0958322061 3.0230590955 3.0318083353 
3.0026411827 3.0076163084 2.9872535944 2.9979688637 3.0122624918 3.0463998457 3.0689543908 3.0444393267 3.0997366448 
3.0663790784 3.0853424872 3.1023970511 3.1140950693 3.1274273757 3.1393439117 3.1557515397 3.1658500463 3.176746531 
3.1759511877 3.1660477543 3.1529980488 3.1431971327 3.135048714 3.1281972475 3.1218483822 3.116315494 3.1112504986 
3.0937418717 3.089883438 3.0847778081 3.0771739325 3.0666848356 3.0562572362 3.0476632116 3.0397950983 3.0271427319 
3.1057536901 3.1295927134 3.1473918475 3.1619010013 3.1721005278 3.1840713048 3.1959454385 3.2070790699 3.2212809356 
3.2354186291 3.249436151 3.2632810993 3.2678962908 3.2766685712 3.2821997464 3.2829157461 3.2839706713 3.0662354988 
3.0762384676 3.0761872357 3.0770275848 3.0731208157 3.067282005 3.0582539835 3.0503629529 3.0426325213 3.0363210361 
3.0382407523 3.2850840205 3.2801323514 3.1256491215 3.2825783527 3.1188532551 3.053091477 3.0740707725 3.2716409928 
3.1066488605 3.1029388409 3.2823951259 3.0978179482 3.0776587614 3.077508739 3.1139479196 3.2822610109 3.1474495374 
3.0705838266 3.0750380197 3.0764961896 3.0964012893 3.0257539543 3.0336812601 3.0051568112 3.0093046448 2.989685163 
3.0029319417 3.0168573661 3.0541982553 3.0734766213 3.0465228827 3.0999416281 3.0630793921 3.0835341168 3.1004267461 
3.1145437419 3.1273598868 3.1399762785 3.1595547486 3.1800485459 3.1825740547 3.1803060308 3.16902778 3.1543736748 
3.1433037172 3.1348298733 3.1280963876 3.1206538063 3.1145445454 3.1094011481 3.0937695169 3.0912444047 3.0857043433 
3.0765965411 3.0671824528 3.0559694002 3.0469681591 3.0384201318 3.0252062162 3.1072665873 3.132013849 3.1542694436 
3.1687406028 3.1779792396 3.1939800764 3.2029648531 3.2131740144 3.2316075495 3.2431428026 3.2596320726 3.2687250895 