# vtk DataFile Version 4.2
vtk output
ASCII
DATASET POLYDATA
POINTS 6422 float
2351.64 -3237.17 5800 2358.66 -3250.17 5800 2700.16 -3250.16 5800 
2725.84 -3237.16 5800 2344.61 -3224.17 5800 2348.83 -3231.98 5800 
2725.84 -3237.15 5800 2751.52 -3224.15 5800 2337.58 -3211.17 5800 
2754.85 -3222.47 5800 2777.2 -3211.15 5800 2330.56 -3198.17 5800 
2783.85 -3207.79 5800 2802.88 -3198.15 5800 2323.82 -3185.16 5800 
2812.85 -3193.1 5800 2828.56 -3185.15 5800 2317.56 -3172.16 5800 
2319.84 -3176.9 5800 2841.85 -3178.42 5800 2854.24 -3172.15 5800 
2311.32 -3159.16 5800 2870.86 -3163.73 5800 2879.92 -3159.14 5800 
2305.07 -3146.16 5800 2899.86 -3149.05 5800 2904.28 -3146.14 5800 
2298.83 -3133.16 5800 2917.93 -3133.14 5800 2292.58 -3120.16 5800 
2926.09 -3120.14 5800 2286.34 -3107.16 5800 2290.84 -3116.53 5800 
2928.86 -3114.09 5800 2932.02 -3107.14 5800 2280.09 -3094.16 5800 
2937.92 -3094.14 5800 2273.85 -3081.16 5800 2943.82 -3081.14 5800 
2267.6 -3068.16 5800 2949.72 -3068.13 5800 2261.36 -3055.16 5800 
2261.84 -3056.16 5800 2955.62 -3055.13 5800 2255.12 -3042.16 5800 
2957.87 -3050.19 5800 2961.53 -3042.13 5800 2248.87 -3029.16 5800 
2967.43 -3029.13 5800 2242.63 -3016.15 5800 2973.33 -3016.13 5800 
2236.38 -3003.15 5800 2979.23 -3003.13 5800 2230.14 -2990.15 5800 
2232.85 -2995.79 5800 2985.13 -2990.13 5800 2223.89 -2977.15 5800 
2986.87 -2986.29 5800 2991.03 -2977.13 5800 2217.65 -2964.15 5800 
2996.93 -2964.12 5800 2211.4 -2951.15 5800 3002.84 -2951.12 5800 
2205.16 -2938.15 5800 3008.74 -2938.12 5800 2198.92 -2925.15 5800 
2203.85 -2935.42 5800 3014.64 -2925.12 5800 2192.67 -2912.15 5800 
3015.88 -2922.39 5800 3020.54 -2912.12 5800 2186.43 -2899.15 5800 
3026.44 -2899.12 5800 2180.18 -2886.15 5800 3032.34 -2886.12 5800 
2173.94 -2873.15 5800 2174.85 -2875.05 5800 3038.24 -2873.12 5800 
2167.69 -2860.15 5800 3044.15 -2860.11 5800 2161.45 -2847.14 5800 
3044.89 -2858.49 5800 3050.02 -2847.11 5800 2151.82 -2834.14 5800 
3055.7 -2834.11 5800 2131.93 -2821.14 5800 2145.86 -2830.05 5800 
3061.19 -2821.11 5800 2110.34 -2808.14 5800 2116.86 -2811.78 5800 
3066.42 -2808.11 5800 2086.82 -2795.14 5800 2087.86 -2795.72 5800 
3071.55 -2795.11 5800 2063.29 -2782.14 5800 3073.89 -2789.19 5800 
3076.69 -2782.11 5800 2039.77 -2769.14 5800 2058.86 -2779.69 5800 
3081.83 -2769.11 5800 2016.25 -2756.14 5800 2029.86 -2763.66 5800 
3086.96 -2756.11 5800 1992.73 -2743.14 5800 2000.86 -2747.64 5800 
3092.1 -2743.1 5800 1969.21 -2730.14 5800 1971.86 -2731.61 5800 
3097.23 -2730.1 5800 1945.68 -2717.14 5800 3102.37 -2717.1 5800 
1929.42 -2704.14 5800 1942.86 -2715.58 5800 3102.9 -2715.76 5800 
3107.5 -2704.1 5800 1924.36 -2691.14 5800 3112.64 -2691.1 5800 
1921.95 -2678.14 5800 3117.78 -2678.1 5800 1920.55 -2665.14 5800 
3122.91 -2665.1 5800 1920.71 -2652.14 5800 3128.05 -2652.1 5800 
1920.98 -2639.14 5800 3131.9 -2642.33 5800 3133.18 -2639.09 5800 
1921.25 -2626.14 5800 3138.32 -2626.09 5800 1921.52 -2613.13 5800 
3143.45 -2613.09 5800 1921.79 -2600.13 5800 3148.59 -2600.09 5800 
1922.06 -2587.13 5800 3153.73 -2587.09 5800 1922.34 -2574.13 5800 
3158.86 -2574.09 5800 1922.61 -2561.13 5800 3160.91 -2568.9 5800 
3164 -2561.09 5800 1922.88 -2548.13 5800 3169.13 -2548.09 5800 
1923.15 -2535.13 5800 3174.27 -2535.09 5800 1923.42 -2522.13 5800 
3179.4 -2522.08 5800 1923.69 -2509.13 5800 3184.54 -2509.08 5800 
1923.97 -2496.13 5800 3189.67 -2496.08 5800 1924.24 -2483.12 5800 
3189.92 -2495.47 5800 3194.81 -2483.08 5800 1924.51 -2470.12 5800 
3199.95 -2470.08 5800 1924.78 -2457.12 5800 3208.7 -2457.08 5800 
1925.05 -2444.12 5800 3218.92 -2446.07 5800 3220.72 -2444.08 5800 
1925.33 -2431.12 5800 3233.3 -2431.08 5800 1925.6 -2418.12 5800 
3245.87 -2418.07 5800 1925.87 -2405.12 5800 3247.93 -2415.95 5800 
3258.45 -2405.07 5800 1926.14 -2392.12 5800 3271.03 -2392.07 5800 
1926.41 -2379.12 5800 3276.93 -2379.96 5800 3277.18 -2379.07 5800 
1926.68 -2366.12 5800 3278.34 -2366.07 5800 1926.96 -2353.11 5800 
3279.51 -2353.07 5800 1927.23 -2340.11 5800 3280.68 -2340.07 5800 
1927.5 -2327.11 5800 3281.89 -2327.07 5800 1927.77 -2314.11 5800 
3282.99 -2314.06 5800 1928.11 -2301.11 5800 3284.06 -2301.06 5800 
1928.48 -2288.11 5800 3285.11 -2288.06 5800 1928.84 -2275.11 5800 
3286.14 -2275.06 5800 1929.21 -2262.11 5800 3287.14 -2262.06 5800 
1929.66 -2249.11 5800 3288.12 -2249.06 5800 1930.12 -2236.11 5800 
3289.08 -2236.06 5800 1930.58 -2223.1 5800 3290.01 -2223.06 5800 
1931.05 -2210.1 5800 3290.93 -2210.06 5800 1931.51 -2197.1 5800 
3291.82 -2197.06 5800 1931.97 -2184.1 5800 3292.7 -2184.05 5800 
1932.44 -2171.1 5800 3293.56 -2171.05 5800 1932.9 -2158.1 5800 
3294.4 -2158.05 5800 1933.36 -2145.1 5800 3295.22 -2145.05 5800 
1933.83 -2132.1 5800 3296.02 -2132.05 5800 1934.29 -2119.1 5800 
3296.81 -2119.05 5800 1934.75 -2106.1 5800 3297.58 -2106.05 5800 
1935.22 -2093.09 5800 3298.34 -2093.05 5800 1935.68 -2080.09 5800 
3299.08 -2080.05 5800 1936.14 -2067.09 5800 3299.81 -2067.05 5800 
1936.6 -2054.09 5800 3300.52 -2054.04 5800 1937.07 -2041.09 5800 
3301.22 -2041.04 5800 1934.07 -2028.09 5800 3301.9 -2028.04 5800 
1931.01 -2015.09 5800 3302.58 -2015.04 5800 1927.96 -2002.09 5800 
3303.24 -2002.04 5800 1924.9 -1989.09 5800 3303.89 -1989.04 5800 
1921.84 -1976.09 5800 3304.52 -1976.04 5800 1918.79 -1963.08 5800 
3305.15 -1963.04 5800 1915.73 -1950.08 5800 3305.76 -1950.04 5800 
1912.67 -1937.08 5800 1913.92 -1942.38 5800 3305.96 -1945.63 5800 
3306.31 -1937.04 5800 1909.61 -1924.08 5800 3306.73 -1924.03 5800 
1906.56 -1911.08 5800 3307.02 -1911.03 5800 1903.5 -1898.08 5800 
3307.3 -1898.03 5800 1900.44 -1885.08 5800 3307.59 -1885.03 5800 
1897.39 -1872.08 5800 3307.88 -1872.03 5800 1894.33 -1859.08 5800 
3308.16 -1859.03 5800 1891.27 -1846.08 5800 3308.45 -1846.03 5800 
1888.21 -1833.08 5800 3308.74 -1833.03 5800 1891.45 -1820.07 5800 
3309.02 -1820.03 5800 1894 -1807.07 5800 3309.31 -1807.02 5800 
1896.16 -1794.07 5800 3309.6 -1794.02 5800 1899.5 -1781.07 5800 
3309.88 -1781.02 5800 1902.84 -1768.07 5800 3310.17 -1768.02 5800 
1906.18 -1755.07 5800 3310.46 -1755.02 5800 1909.52 -1742.07 5800 
3310.74 -1742.02 5800 1912.86 -1729.07 5800 3311.03 -1729.02 5800 
1913.93 -1724.89 5800 1916.2 -1716.07 5800 3311.32 -1716.02 5800 
1919.54 -1703.06 5800 3311.6 -1703.02 5800 1922.88 -1690.06 5800 
3311.89 -1690.02 5800 1926.22 -1677.06 5800 3312.18 -1677.01 5800 
1929.56 -1664.06 5800 3312.46 -1664.01 5800 1932.91 -1651.06 5800 
3312.75 -1651.01 5800 1936.25 -1638.06 5800 3313.04 -1638.01 5800 
1939.59 -1625.06 5800 3313.32 -1625.01 5800 1942.93 -1612.06 5800 
3311.92 -1612.01 5800 1942.94 -1612 5800 1946.27 -1599.06 5800 
3307.3 -1599.01 5800 1949.61 -1586.05 5800 3305.99 -1596.4 5800 
3300.75 -1586.01 5800 1952.95 -1573.05 5800 3295.29 -1573.01 5800 
1956.35 -1560.05 5800 3291.91 -1560.01 5800 1959.78 -1547.05 5800 
3290.92 -1547.01 5800 1963.15 -1534.05 5800 3290.51 -1534 5800 
1966.62 -1521.05 5800 3290.16 -1521 5800 1970.12 -1508.05 5800 
3289.85 -1508 5800 1971.95 -1496.83 5800 1972.23 -1495.05 5800 
3289.59 -1495 5800 1973.45 -1482.05 5800 3289.36 -1482 5800 
1974.67 -1469.04 5800 3289.16 -1469 5800 1975.89 -1456.04 5800 
3288.97 -1456 5800 1977.11 -1443.04 5800 3288.81 -1443 5800 
1978.33 -1430.04 5800 3289.25 -1430 5800 1979.55 -1417.04 5800 
3289.7 -1417 5800 1980.77 -1404.04 5800 3290.14 -1403.99 5800 
1981.99 -1391.04 5800 3290.59 -1390.99 5800 1983.2 -1378.04 5800 
3291.03 -1377.99 5800 1984.42 -1365.04 5800 3291.48 -1364.99 5800 
1985.64 -1352.04 5800 3291.92 -1351.99 5800 1986.84 -1339.03 5800 
3292.37 -1338.99 5800 1987.75 -1326.03 5800 3292.82 -1325.99 5800 
1988.6 -1313.03 5800 3293.26 -1312.99 5800 1989.44 -1300.03 5800 
3293.71 -1299.99 5800 1990.28 -1287.03 5800 3294.15 -1286.99 5800 
1991.12 -1274.03 5800 3294.6 -1273.98 5800 1991.96 -1261.03 5800 
3295.04 -1260.98 5800 1992.8 -1248.03 5800 3295.49 -1247.98 5800 
1993.64 -1235.03 5800 3295.94 -1234.98 5800 1994.48 -1222.03 5800 
3296.38 -1221.98 5800 1995.32 -1209.02 5800 3296.83 -1208.98 5800 
1996.16 -1196.02 5800 3297.27 -1195.98 5800 1997 -1183.02 5800 
3297.76 -1182.98 5800 1997.84 -1170.02 5800 3298.3 -1169.98 5800 
1998.75 -1157.02 5800 3298.84 -1156.98 5800 1999.63 -1144.02 5800 
3299.38 -1143.97 5800 2000.43 -1131.02 5800 3299.93 -1130.97 5800 
2000.98 -1123.44 5800 2001.38 -1118.02 5800 3300.49 -1117.97 5800 
2003.12 -1105.02 5800 3301.06 -1104.97 5800 2004.46 -1092.01 5800 
3301.25 -1091.97 5800 2008.62 -1079.01 5800 3301.34 -1078.97 5800 
2012.93 -1066.01 5800 3301.43 -1065.97 5800 2015.61 -1053.01 5800 
3301.52 -1052.97 5800 2018.41 -1040.01 5800 3301.61 -1039.97 5800 
2021.34 -1027.01 5800 3301.7 -1026.97 5800 2024.4 -1014.01 5800 
3301.79 -1013.96 5800 2027.62 -1001.01 5800 2572.87 -1000.99 5800 
2581.01 -1003.12 5800 2597.74 -1000.99 5800 3302.08 -1000.96 5800 
2029.99 -991.803 5800 2030.59 -988.006 5800 2537.67 -987.988 5800 
2552.01 -996.688 5800 2610.01 -999.424 5800 2639.01 -995.729 5800 
2668.02 -992.034 5800 2697.02 -988.338 5800 2699.81 -987.983 5800 
3302.39 -987.962 5800 2032.63 -975.005 5800 2517.92 -974.988 5800 
2523.01 -978.162 5800 2726.02 -984.682 5800 2755.02 -981.595 5800 
2759.87 -974.98 5800 3302.7 -974.961 5800 2034.66 -962.004 5800 
2497.06 -961.988 5800 2767.78 -961.979 5800 3301.96 -961.96 5800 
2036.7 -949.003 5800 2475.85 -948.988 5800 2494.01 -960.086 5800 
2774.1 -948.977 5800 3299.32 -948.959 5800 2038.44 -936.002 5800 
2454.01 -935.987 5800 2465.01 -942.535 5800 2780.34 -935.976 5800 
3297.24 -935.958 5800 2040.22 -923.001 5800 2432.17 -922.987 5800 
2436.01 -925.275 5800 2784.02 -928.578 5800 2787 -922.975 5800 
3295.02 -922.957 5800 2042.06 -910 5800 2410.33 -909.987 5800 
2793.74 -909.974 5800 3292.37 -909.956 5800 2043.96 -896.999 5800 
2399.43 -896.986 5800 2407.01 -908.015 5800 2800.25 -896.972 5800 
3289.71 -896.956 5800 2045.92 -883.997 5800 2392.05 -883.986 5800 
2806.53 -883.971 5800 3287.06 -883.955 5800 2047.91 -870.996 5800 
2386.83 -870.985 5800 2812.68 -870.97 5800 3284.41 -870.954 5800 
[...]
POINT_DATA 6422
SCALARS Pressure double
LOOKUP_TABLE default
3.0932710339 3.0932710339 3.0932710339 3.0932710339 3.0932710339 3.0932710339 3.0932710339 3.0932710339 3.0932710339 
3.0932710339 3.0932710339 3.0932710339 3.0932710339 3.0932710339 3.0932710339 3.0932710339 3.0932710339 3.0932710339 
3.0932710339 3.0932710339 3.0932710339 3.0932710339 3.0932710339 3.0932710339 3.0932710339 3.0932710339 3.0932710339 
3.0932710339 3.0932710339 3.0932710339 3.0932710339 3.0932710339 3.0932710339 3.0932710339 3.0932710339 3.0932710339 
3.0932710339 3.0932710339 3.0932710339 3.0932710339 3.0932710339 3.0932710339 3.0932710339 3.0932710339 3.0932710339 
3.0932710339 3.0932710339 3.0932710339 3.0932710339 3.0932710339 3.0932710339 3.0932710339 3.0932710339 3.0932710339 
3.0932710339 3.0932710339 3.0932710339 3.0932710339 3.0932710339 3.0932710339 3.0932710339 3.0932710339 3.0932710339 
3.0932710339 3.0932710339 3.0932710339 3.0932710339 3.0932710339 3.0932710339 3.0932710339 3.0932710339 3.0932710339 
3.0932710339 3.0932710339 3.0932710339 3.0932710339 3.0932710339 3.0932710339 3.0932710339 3.0932710339 3.0932710339 
3.0932710339 3.0932710339 3.0932710339 3.0932710339 3.0932710339 3.0932710339 3.0932710339 3.0932710339 3.0932710339 
3.0932710339 3.0932710339 3.0932710339 3.0932710339 3.0932710339 3.0932710339 3.0932710339 3.0932710339 3.0932710339 
3.0932710339 3.0932710339 3.0932710339 3.0932710339 3.0932710339 3.0932710339 3.0932710339 3.0932710339 3.0932710339 
3.0932710339 3.0932710339 3.0932710339 3.0932710339 3.0932710339 3.0932710339 3.0932710339 3.0932710339 3.0932710339 
3.0932710339 3.0932710339 3.0932710339 3.0932710339 3.0932710339 3.0932710339 3.0932710339 3.0932710339 3.0932710339 
3.0932710339 3.0932710339 3.0932710339 3.0932710339 3.0932710339 3.0932710339 3.0932710339 3.0932710339 3.0932710339 
3.0932710339 3.0932710339 3.0932710339 3.0932710339 3.0932710339 3.0932710339 3.0932710339 3.0932710339 3.0932710339 
3.0932710339 3.0932710339 3.0932710339 3.0932710339 3.0932710339 3.0932710339 3.0932710339 3.0932710339 3.0932710339 
3.0932710339 3.0932710339 3.0932710339 3.0932710339 3.0932710339 3.0932710339 3.0932710339 3.0932710339 3.0932710339 
3.0932710339 3.0932710339 3.0932710339 3.0932710339 3.0932710339 3.0932710339 3.0932710339 3.0932710339 3.0932710339 
3.0932710339 3.0932710339 3.0932710339 3.0932710339 3.0932710339 3.0932710339 3.0932710339 3.0932710339 3.0932710339 
3.0932710339 3.0932710339 3.0932710339 3.0932710339 3.0932710339 3.0932710339 3.0932710339 3.0932710339 3.0932710339 
3.0932710339 3.0932710339 3.0932710339 3.0932710339 3.0932710339 3.0932710339 3.0932710339 3.0932710339 3.0932710339 
3.0932710339 3.0932710339 3.0932710339 3.0932710339 3.0932710339 3.0932710339 3.0932710339 3.0932710339 3.0932710339 
3.0932710339 3.0932710339 3.0932710339 3.0932710339 3.0932710339 3.0932710339 3.0932710339 3.0932710339 3.0932710339 
3.0932710339 3.0932710339 3.0932710339 3.0932710339 3.0932710339 3.0932710339 3.0932710339 3.0932710339 3.0932710339 
3.0932710339 3.0932710339 3.0932710339 3.0932710339 3.0932710339 3.0932710339 3.0932710339 3.0932710339 3.0932710339 
3.0932710339 3.0932710339 3.0932710339 3.0932710339 3.0932710339 3.0932710339 3.0932710339 3.0932710339 3.0932710339 
3.0932710339 3.0932710339 3.0932710339 3.0932710339 3.0932710339 3.0932710339 3.0932710339 3.0932710339 3.0932710339 
3.0932710339 3.0932710339 3.0932710339 3.0932710339 3.0932710339 3.0932710339 3.0932710339 3.0932710339 3.0932710339 
3.0932710339 3.0932710339 3.0932710339 3.0932710339 3.0932710339 3.0932710339 3.0932710339 3.0932710339 3.0932710339 
3.0932710339 3.0932710339 3.0932710339 3.0932710339 3.0932710339 3.0932710339 3.0932710339 3.0932710339 3.0932710339 
3.0932710339 3.0932710339 3.0932710339 3.0932710339 3.0932710339 3.0932710339 3.0932710339 3.0932710339 3.0932710339 
3.0932710339 3.0932710339 3.0932710339 3.0932710339 3.0932710339 3.0932710339 3.0932710339 3.0932710339 3.0932710339 
3.0932710339 3.0932710339 3.0932710339 3.0932710339 3.0932710339 3.0932710339 3.0932710339 3.0932710339 3.0932710339 
3.0932710339 3.0932710339 3.0932710339 3.0932710339 3.0932710339 3.0932710339 3.0932710339 3.0932710339 3.0932710339 
3.0932710339 3.0932710339 3.0932710339 3.0932710339 3.0932710339 3.0932710339 3.0932710339 3.0932710339 3.0932710339 
3.0932710339 3.0932710339 3.0932710339 3.0932710339 3.0932710339 3.0932710339 3.0932710339 3.0932710339 3.0932710339 
3.0932710339 3.0932710339 3.0932710339 3.0932710339 3.0932710339 3.0932710339 3.0932710339 3.0932710339 3.0932710339 
3.0932710339 3.0932710339 3.0932710339 3.0932710339 3.0932710339 3.0932710339 3.0932710339 3.0932710339 3.0932710339 
3.0932710339 3.0932710339 3.0932710339 3.0932710339 3.0932710339 3.0932710339 3.0932710339 3.0932710339 3.0932710339 
3.0932710339 3.0932710339 3.0932710339 3.0932710339 3.0932710339 3.0932710339 3.0932710339 3.0932710339 3.0932710339 
3.0932710339 3.0932710339 3.0932710339 3.0932710339 3.0932710339 3.0932710339 3.0932710339 3.0932710339 3.0932710339 
3.0932710339 3.0932710339 3.0932710339 3.0932710339 3.0932710339 3.0932710339 3.0932710339 3.0932710339 3.0932710339 
3.0932710339 3.0932710339 3.1078652246 3.1078652246 3.1078652246 3.0932710339 3.0932710339 3.0932710339 3.1078652246 
3.1078652246 3.1078652246 3.1078652246 3.1078652246 3.1078652246 3.1078652246 3.0932710339 3.0932710339 3.1078652246 
3.1078652246 3.1078652246 3.1078652246 3.1078652246 3.0932710339 3.0932710339 3.1078652246 3.1078652246 3.0932710339 
3.0932710339 3.1078652246 3.1078652246 3.1078652246 3.0932710339 3.0932710339 3.1078652246 3.1078652246 3.1078652246 
3.0932710339 3.0932710339 3.1078652246 3.1078652246 3.1078652246 3.1078652246 3.0932710339 3.0932710339 3.1078652246 
3.1078652246 3.0932710339 3.0932710339 3.1078652246 3.1078652246 3.1078652246 3.0932710339 3.0932710339 3.1078652246 
3.1078652246 3.0932710339 3.0932710339 3.1078652246 3.1078652246 3.0932710339 3.0932710339 3.1078652246 3.1078652246 
3.1078652246 3.0932710339 3.0932710339 3.1078652246 3.1078652246 3.1078652246 3.0932710339 3.0932710339 3.1078652246 
3.1078652246 3.0932710339 3.0932710339 3.0932710339 3.1078652246 3.1078652246 3.0932710339 3.0932710339 3.1078652246 
3.1078652246 3.1078652246 3.0932710339 3.0932710339 3.0932710339 3.1078652246 3.1078652246 3.1078652246 3.0932710339 
3.0932710339 3.1078652246 3.1078652246 3.1078652246 3.0932710339 3.0932710339 3.1078652246 3.1078652246 3.0932710339 
3.0932710339 3.1078652246 3.1078652246 3.1078652246 3.0932710339 3.0932710339 3.1078652246 3.1078652246 3.0932710339 
3.0932710339 3.1078652246 3.1078652246 3.1078652246 3.0932710339 3.0932710339 3.1078652246 3.1078652246 3.0932710339 
3.0932710339 3.1078652246 3.1078652246 3.0932710339 3.0932710339 3.1078652246 3.1078652246 3.0932710339 3.0932710339 
3.1078652246 3.1078652246 3.1078652246 3.0932710339 3.0932710339 3.1078652246 3.1078652246 3.1078652246 3.0932710339 
3.0932710339 3.1078652246 3.1078652246 3.0932710339 3.0932710339 3.1078652246 3.1224594153 3.1224594153 3.1224594153 
3.1224594153 3.1078652246 3.0932710339 3.0932710339 3.1078652246 3.1224594153 3.1224594153 3.1224594153 3.1224594153 
3.1078652246 3.0932710339 3.0932710339 3.1078652246 3.1224594153 3.1224594153 3.1224594153 3.1078652246 3.0932710339 
3.0932710339 3.0932710339 3.1078652246 3.1224594153 3.1224594153 3.1224594153 3.1224594153 3.1078652246 3.0932710339 
3.0932710339 3.1078652246 3.1224594153 3.1224594153 3.1224594153 3.1078652246 3.1078652246 3.0932710339 3.0932710339 
3.1078652246 3.1224594153 3.1224594153 3.1224594153 3.1078652246 3.0932710339 3.0932710339 3.1078652246 3.1224594153 
3.1224594153 3.1224594153 3.1078652246 3.0932710339 3.0932710339 3.1078652246 3.1078652246 3.1224594153 3.1224594153 
3.1224594153 3.1078652246 3.0932710339 3.0932710339 3.1078652246 3.1224594153 3.1224594153 3.1224594153 3.1078652246 
3.1078652246 3.0932710339 3.0932710339 3.1078652246 3.1224594153 3.1224594153 3.1078652246 3.0932710339 3.0932710339 
3.1078652246 3.1224594153 3.1224594153 3.1224594153 3.1078652246 3.0932710339 3.0932710339 3.1078652246 3.1224594153 
3.1224594153 3.1224594153 3.1078652246 3.0932710339 3.0786768432 3.0786768432 3.0786768432 3.0786768432 3.0786768432 
3.0932710339 3.1078652246 3.1224594153 3.1224594153 3.1078652246 3.0932710339 3.0786768432 3.0786768432 3.0786768432 
3.0786768432 3.0786768432 3.0786768432 3.0786768432 3.0786768432 3.0786768432 3.0786768432 3.0786768432 3.0932710339 
3.1078652246 3.1078652246 3.1224594153 3.1224594153 3.1078652246 3.1078652246 3.0932710339 3.0786768432 3.0786768432 
3.0786768432 3.0786768432 3.0786768432 3.0786768432 3.0786768432 3.0932710339 3.1078652246 3.1224594153 3.1224594153 
3.1224594153 3.1224594153 3.1078652246 3.0932710339 3.0786768432 3.0786768432 3.0786768432 3.0786768432 3.0786768432 
3.0786768432 3.0786768432 3.0932710339 3.1078652246 3.1224594153 3.1224594153 3.1078652246 3.0932710339 3.0786768432 
3.0786768432 3.0786768432 3.0786768432 3.0786768432 3.0786768432 3.0932710339 3.0932710339 3.1078652246 3.1224594153 
3.137053606 3.137053606 3.137053606 3.137053606 3.137053606 3.1224594153 3.1078652246 3.0932710339 3.0786768432 
3.0786768432 3.0786768432 3.0786768432 3.0786768432 3.0786768432 3.0932710339 3.1078652246 3.1224594153 3.137053606 
3.137053606 3.137053606 3.137053606 3.1224594153 3.1078652246 3.0932710339 3.0786768432 3.0786768432 3.0786768432 
3.0786768432 3.0786768432 3.0786768432 3.0932710339 3.1078652246 3.1224594153 3.1224594153 3.137053606 3.137053606 
3.137053606 3.1224594153 3.1224594153 3.1078652246 3.0932710339 3.0786768432 3.0786768432 3.0786768432 3.0786768432 
3.0786768432 3.0932710339 3.1078652246 3.1224594153 3.137053606 3.137053606 3.137053606 3.1224594153 3.1078652246 
3.1078652246 3.0932710339 3.0786768432 3.0786768432 3.0786768432 3.0786768432 3.0786768432 3.0932710339 3.1078652246 
3.1224594153 3.137053606 3.137053606 3.137053606 3.1224594153 3.1078652246 3.0932710339 3.0786768432 3.0786768432 
3.0786768432 3.0786768432 3.0786768432 3.0786768432 3.0932710339 3.1078652246 3.1224594153 3.137053606 3.137053606 
3.137053606 3.1224594153 3.1224594153 3.1078652246 3.0932710339 3.0786768432 3.0786768432 3.0786768432 3.0786768432 
3.0786768432 3.0786768432 3.0786768432 3.0932710339 3.1078652246 3.1224594153 3.137053606 3.137053606 3.1224594153 
3.1078652246 3.0932710339 3.0786768432 3.0786768432 3.0786768432 3.0786768432 3.0786768432 3.0932710339 3.1078652246 
3.1224594153 3.137053606 3.137053606 3.1224594153 3.1078652246 3.0932710339 3.0932710339 3.0786768432 3.0786768432 
3.0786768432 3.0786768432 3.0786768432 3.0932710339 3.1078652246 3.1224594153 3.1224594153 3.137053606 3.137053606 
3.137053606 3.137053606 3.1224594153 3.1078652246 3.0932710339 3.0786768432 3.0786768432 3.0786768432 3.0786768432 
3.0786768432 3.0786768432 3.0932710339 3.1078652246 3.1224594153 3.137053606 3.137053606 3.1224594153 3.1224594153 
3.1078652246 3.0932710339 3.0786768432 3.0786768432 3.0786768432 3.0786768432 3.0786768432 3.0932710339 3.1078652246 
3.1224594153 3.137053606 3.137053606 3.1224594153 3.1078652246 3.1078652246 3.0932710339 3.0786768432 3.0786768432 
3.0786768432 3.0786768432 3.0786768432 3.0932710339 3.1078652246 3.1224594153 3.137053606 3.137053606 3.1516477967 
3.1516477967 3.1516477967 3.1516477967 3.137053606 3.137053606 3.1224594153 3.1078652246 3.0932710339 3.0786768432 
3.0786768432 3.0786768432 3.0786768432 3.0786768432 3.0932710339 3.1078652246 3.1078652246 3.1224594153 3.137053606 
3.1516477967 3.1516477967 3.1516477967 3.1516477967 3.137053606 3.1224594153 3.1078652246 3.0932710339 3.0786768432 
3.0786768432 3.0786768432 3.0786768432 3.0786768432 3.0932710339 3.1078652246 3.1224594153 3.1224594153 3.137053606 
3.1516477967 3.1516477967 3.1516477967 3.1516477967 3.137053606 3.1224594153 3.1078652246 3.0932710339 3.0932710339 
3.0786768432 3.0786768432 3.0786768432 3.0786768432 3.0786768432 3.0932710339 3.1078652246 3.1224594153 3.137053606 
3.1516477967 3.1516477967 3.137053606 3.1224594153 3.1078652246 3.0932710339 3.0786768432 3.0786768432 3.0786768432 
3.0786768432 3.0932710339 3.1078652246 3.1224594153 3.137053606 3.137053606 3.1516477967 3.1516477967 3.1516477967 
3.137053606 3.137053606 3.1224594153 3.1078652246 3.0932710339 3.0786768432 3.0786768432 3.0786768432 3.0786768432 
3.0932710339 3.1078652246 3.1224594153 3.137053606 3.1516477967 3.1516477967 3.1516477967 3.137053606 3.1224594153 
3.1224594153 3.1078652246 3.0932710339 3.0786768432 3.0786768432 3.0786768432 3.0640826525 3.0640826525 3.0640826525 
3.0640826525 3.0786768432 3.0786768432 3.0932710339 3.0932710339 3.1078652246 3.1224594153 3.137053606 3.1516477967 
3.1516477967 3.1516477967 3.137053606 3.1224594153 3.1078652246 3.0932710339 3.0786768432 3.0786768432 3.0786768432 
3.0786768432 3.0640826525 3.0640826525 3.0640826525 3.0640826525 3.0640826525 3.0640826525 3.0640826525 3.0786768432 
3.0932710339 3.1078652246 3.1224594153 3.137053606 3.137053606 3.1516477967 3.1516477967 3.137053606 3.1224594153 
3.1078652246 3.0932710339 3.0786768432 3.0786768432 3.0786768432 3.0786768432 3.0640826525 3.0640826525 3.0786768432 
3.0932710339 3.0932710339 3.1078652246 3.1224594153 3.1224594153 3.137053606 3.1516477967 3.1516477967 3.1516477967 
3.137053606 3.1224594153 3.1078652246 3.0932710339 3.0786768432 3.0786768432 3.0786768432 3.0640826525 3.0640826525 
3.0640826525 3.0786768432 3.0932710339 3.1078652246 3.1224594153 3.137053606 3.1516477967 3.1662419875 3.1662419875 
3.1662419875 3.1516477967 3.137053606 3.1224594153 3.1078652246 3.0932710339 3.0786768432 3.0786768432 3.0786768432 
3.0786768432 3.0640826525 3.0640826525 3.0640826525 3.0786768432 3.0932710339 3.1078652246 3.1224594153 3.137053606 
3.1516477967 3.1662419875 3.1662419875 3.1662419875 3.1662419875 3.1662419875 3.1516477967 3.1516477967 3.137053606 
3.1224594153 3.1078652246 3.0932710339 3.0786768432 3.0786768432 3.0786768432 3.0786768432 3.0640826525 3.0640826525 
3.0640826525 3.0786768432 3.0932710339 3.1078652246 3.1224594153 3.137053606 3.137053606 3.1516477967 3.1516477967 
3.1662419875 3.1662419875 3.1516477967 3.137053606 3.1224594153 3.1078652246 3.0932710339 3.0786768432 3.0786768432 
3.0786768432 3.0786768432 3.0640826525 3.0640826525 3.0786768432 3.0932710339 3.1078652246 3.1224594153 3.137053606 
3.1516477967 3.1662419875 3.1662419875 3.1662419875 3.1662419875 3.1516477967 3.137053606 3.1224594153 3.1078652246 
3.0932710339 3.0786768432 3.0786768432 3.0786768432 3.0786768432 3.0640826525 3.0494884618 3.0494884618 3.0494884618 
3.0640826525 3.0786768432 3.0786768432 3.0932710339 3.0932710339 3.1078652246 3.1078652246 3.1224594153 3.137053606 
3.1516477967 3.1516477967 3.1662419875 3.1662419875 3.1662419875 3.1516477967 3.137053606 3.1224594153 3.1078652246 
3.0932710339 3.0786768432 3.0786768432 3.0786768432 3.0786768432 3.0786768432 3.0786768432 3.0786768432 3.0786768432 
3.0786768432 3.0640826525 3.0640826525 3.0494884618 3.0494884618 3.0494884618 3.0494884618 3.0494884618 3.0640826525 
3.0640826525 3.0786768432 3.0932710339 3.1078652246 3.1224594153 3.1224594153 3.137053606 3.1516477967 3.1662419875 
3.1662419875 3.1516477967 3.137053606 3.1224594153 3.1078652246 3.0932710339 3.0786768432 3.0640826525 3.0640826525 
3.0640826525 3.0786768432 3.0786768432 3.0786768432 3.0640826525 3.0494884618 3.0494884618 3.0494884618 3.0640826525 
3.0786768432 3.0932710339 3.0932710339 3.1078652246 3.1224594153 3.137053606 3.137053606 3.1516477967 3.1662419875 
3.1662419875 3.1662419875 3.1516477967 3.137053606 3.1224594153 3.1224594153 3.1078652246 3.0932710339 3.0786768432 
3.0640826525 3.0640826525 3.0640826525 3.0640826525 3.0786768432 3.0786768432 3.0640826525 3.0494884618 3.0494884618 
3.0494884618 3.0640826525 3.0786768432 3.0932710339 3.1078652246 3.1224594153 3.137053606 3.1516477967 3.1516477967 
3.1662419875 3.1662419875 3.1516477967 3.137053606 3.1224594153 3.1078652246 3.1078652246 3.0932710339 3.0932710339 
3.0786768432 3.0786768432 3.0640826525 3.0640826525 3.0640826525 3.0640826525 3.0786768432 3.0786768432 3.0786768432 
3.0640826525 3.0494884618 3.0348942711 3.0348942711 3.0348942711 3.0494884618 3.0640826525 3.0786768432 3.0932710339 
3.1078652246 3.1224594153 3.137053606 3.1516477967 3.1662419875 3.1662419875 3.1662419875 3.1516477967 3.137053606 
3.1224594153 3.1078652246 3.0932710339 3.0786768432 3.0640826525 3.0640826525 3.0640826525 3.0786768432 3.0786768432 
3.0640826525 3.0494884618 3.0348942711 3.0348942711 3.0348942711 3.0348942711 3.0494884618 3.0494884618 3.0640826525 
3.0786768432 3.0932710339 3.1078652246 3.1224594153 3.137053606 2.9473291268 2.9473291268 2.9619233175 2.9619233175 
2.9765175082 2.9765175082 2.991111699 2.991111699 3.0057058897 3.0057058897 3.0203000804 3.0203000804 3.0348942711 
3.0348942711 3.0494884618 3.0494884618 3.0640826525 3.0640826525 3.0786768432 3.0786768432 3.0932710339 3.0932710339 
3.1078652246 3.1078652246 3.1224594153 3.1224594153 3.137053606 3.137053606 3.1516477967 2.9473291268 2.9619233175 
2.9765175082 2.991111699 3.0057058897 3.0203000804 3.0348942711 3.0494884618 3.0640826525 3.0786768432 3.0932710339 
3.1078652246 3.1224594153 3.137053606 3.1516477967 2.9473291268 2.9619233175 2.9765175082 2.991111699 3.0057058897 
3.0203000804 3.0348942711 3.0494884618 3.0640826525 3.0786768432 3.0932710339 3.1078652246 3.1224594153 3.137053606 
3.1516477967 3.1662419875 2.9473291268 2.9619233175 2.9765175082 2.991111699 3.0057058897 3.0203000804 3.0348942711 
3.0494884618 3.0640826525 3.0786768432 3.0932710339 3.1078652246 3.1224594153 3.137053606 3.1516477967 3.1662419875 
2.9473291268 2.9619233175 2.9765175082 2.991111699 3.0057058897 3.0203000804 3.0348942711 3.0494884618 3.0640826525 
3.0786768432 3.0932710339 3.1078652246 3.1224594153 3.137053606 3.1516477967 3.1662419875 2.9473291268 2.9619233175 
2.9765175082 2.991111699 3.0057058897 3.0203000804 3.0348942711 3.0494884618 3.0640826525 3.0786768432 3.0932710339 
3.1078652246 3.1224594153 3.137053606 3.1516477967 3.1662419875 2.9473291268 2.9619233175 2.9765175082 2.991111699 
3.0057058897 3.0203000804 3.0348942711 3.0494884618 3.0640826525 3.0786768432 3.0932710339 3.1078652246 3.1224594153 
3.137053606 3.1516477967 3.1662419875 2.9473291268 2.9619233175 2.9765175082 2.991111699 3.0057058897 3.0203000804 
3.0348942711 3.0494884618 3.0640826525 3.0786768432 3.0932710339 3.1078652246 3.1224594153 3.137053606 3.1516477967 
3.1662419875 2.9473291268 2.9619233175 2.9765175082 2.991111699 3.0057058897 3.0203000804 3.0348942711 3.0494884618 
3.0640826525 3.0786768432 3.0932710339 3.1078652246 3.1224594153 3.137053606 3.1516477967 3.1662419875 2.9473291268 
2.9619233175 2.9765175082 2.991111699 3.0057058897 3.0203000804 3.0348942711 3.0494884618 3.0640826525 3.0786768432 
3.0932710339 3.1078652246 3.1224594153 3.137053606 3.1516477967 3.1662419875 2.9473291268 2.9619233175 2.9765175082 
2.991111699 3.0057058897 3.0203000804 3.0348942711 3.0494884618 3.0640826525 3.0786768432 3.0932710339 3.1078652246 
3.1224594153 3.137053606 3.1516477967 3.1662419875 2.9473291268 2.9619233175 2.9765175082 2.991111699 3.0057058897 
3.0203000804 3.0348942711 3.0494884618 3.0640826525 3.0786768432 3.0932710339 3.1078652246 3.1224594153 3.137053606 
3.1516477967 2.9473291268 2.9619233175 2.9765175082 2.991111699 3.0057058897 3.0203000804 3.0348942711 3.0494884618 
3.0640826525 3.0786768432 3.0932710339 3.1078652246 3.1224594153 3.137053606 3.1516477967 2.9473291268 2.9619233175 
2.9765175082 2.991111699 3.0057058897 3.0203000804 3.0348942711 3.0494884618 3.0640826525 3.0786768432 3.0932710339 
3.1078652246 3.1224594153 3.137053606 3.1516477967 2.9473291268 2.9619233175 2.9765175082 2.991111699 3.0057058897 
3.0203000804 3.0348942711 3.0494884618 3.0640826525 3.0786768432 3.0932710339 3.1078652246 3.1224594153 3.137053606 
2.9473291268 2.9619233175 2.9765175082 2.991111699 3.0057058897 3.0203000804 3.0348942711 3.0494884618 3.0640826525 