# vtk DataFile Version 4.2
vtk output
ASCII
DATASET POLYDATA
POINTS 7157 float
1501.24 -3655.17 0 1516.83 -3661.58 0 1528.96 -3655.17 0 
1477.06 -3638.17 0 1479.83 -3642.67 0 1553.83 -3642.04 0 
1561.15 -3638.17 0 1466.62 -3621.17 0 1590.83 -3622.5 0 
1593.34 -3621.17 0 1456.17 -3604.17 0 1625.53 -3604.17 0 
1445.73 -3587.17 0 1627.83 -3602.95 0 1657.72 -3587.17 0 
1435.29 -3570.17 0 1442.83 -3582.45 0 1664.83 -3583.41 0 
1689.92 -3570.16 0 1424.84 -3553.17 0 1701.84 -3563.87 0 
1722.11 -3553.16 0 1414.4 -3536.17 0 1738.84 -3544.33 0 
1754.3 -3536.16 0 1403.95 -3519.17 0 1405.83 -3522.23 0 
1775.84 -3524.78 0 1786.49 -3519.16 0 1393.51 -3502.17 0 
1812.84 -3505.24 0 1818.68 -3502.16 0 1383.06 -3485.17 0 
1849.84 -3485.7 0 1850.88 -3485.16 0 1372.62 -3468.17 0 
1883.07 -3468.15 0 1362.17 -3451.17 0 1368.83 -3462 0 
1886.85 -3466.16 0 1915.26 -3451.15 0 1351.73 -3434.17 0 
1923.85 -3446.61 0 1947.45 -3434.15 0 1341.29 -3417.16 0 
1960.85 -3427.07 0 1979.64 -3417.15 0 1330.84 -3400.16 0 
1331.84 -3401.78 0 1997.85 -3407.53 0 2011.84 -3400.15 0 
1320.4 -3383.16 0 2034.86 -3387.99 0 2044.03 -3383.14 0 
1309.95 -3366.16 0 2071.86 -3368.45 0 2076.22 -3366.14 0 
1299.51 -3349.16 0 2108.41 -3349.14 0 1289.06 -3332.16 0 
1294.84 -3341.56 0 2108.86 -3348.9 0 2140.6 -3332.14 0 
1278.62 -3315.16 0 2145.86 -3329.36 0 2172.8 -3315.14 0 
1268.18 -3298.16 0 2182.86 -3309.82 0 2204.99 -3298.13 0 
1257.73 -3281.16 0 1257.84 -3281.34 0 2219.87 -3290.28 0 
2241.63 -3281.13 0 1247.29 -3264.16 0 2256.87 -3272.77 0 
2284.81 -3264.13 0 1236.84 -3247.16 0 2293.87 -3258.25 0 
2330.87 -3252.82 0 2367.87 -3247.28 0 2368.01 -3247.13 0 
1226.4 -3230.16 0 2382.05 -3230.13 0 1215.95 -3213.16 0 
1220.84 -3221.12 0 2394.23 -3213.12 0 1205.51 -3196.16 0 
2404.88 -3196.13 0 2404.88 -3196.12 0 1195.06 -3179.15 0 
2404.88 -3196.12 0 2389.21 -3179.12 0 1184.62 -3162.15 0 
2391.61 -3162.12 0 1174.18 -3145.15 0 1183.85 -3160.89 0 
2395.95 -3145.12 0 1163.73 -3128.15 0 2400.03 -3128.12 0 
1153.29 -3111.15 0 2404.11 -3111.12 0 1142.84 -3094.15 0 
1146.85 -3100.67 0 2404.88 -3107.91 0 2408.19 -3094.12 0 
1132.4 -3077.15 0 2412.27 -3077.12 0 1121.95 -3060.15 0 
2416.35 -3060.11 0 1111.51 -3043.15 0 2420.43 -3043.11 0 
1101.06 -3026.15 0 1109.85 -3040.45 0 2424.51 -3026.11 0 
1090.62 -3009.15 0 2428.59 -3009.11 0 1080.18 -2992.15 0 
2432.67 -2992.11 0 1069.73 -2975.15 0 1072.85 -2980.23 0 
2436.75 -2975.11 0 1059.29 -2958.15 0 2440.83 -2958.11 0 
1048.84 -2941.14 0 2441.89 -2953.69 0 2444.91 -2941.11 0 
1038.4 -2924.14 0 2448.99 -2924.11 0 998.682 -2907.14 0 
998.856 -2907.22 0 1035.86 -2923.03 0 2453.07 -2907.1 0 
960.184 -2890.14 0 961.856 -2892.76 0 2457.15 -2890.1 0 
950.349 -2873.14 0 2461.23 -2873.1 0 940.812 -2856.14 0 
2465.31 -2856.1 0 931.559 -2839.14 0 2469.39 -2839.1 0 
923.143 -2822.14 0 924.859 -2826.51 0 2473.47 -2822.1 0 
916.463 -2805.14 0 2477.55 -2805.1 0 909.784 -2788.14 0 
2478.9 -2799.46 0 2481.63 -2788.1 0 903.104 -2771.14 0 
2485.71 -2771.1 0 896.424 -2754.14 0 2489.79 -2754.09 0 
889.744 -2737.14 0 2493.87 -2737.09 0 883.064 -2720.14 0 
887.863 -2732.35 0 2497.95 -2720.09 0 876.384 -2703.14 0 
2502.03 -2703.09 0 869.704 -2686.13 0 2506.11 -2686.09 0 
863.025 -2669.13 0 2510.19 -2669.09 0 856.345 -2652.13 0 
2514.27 -2652.09 0 849.665 -2635.13 0 850.868 -2638.19 0 
2515.91 -2645.23 0 2518.35 -2635.09 0 842.985 -2618.13 0 
2522.43 -2618.09 0 836.305 -2601.13 0 2526.51 -2601.08 0 
829.625 -2584.13 0 2530.59 -2584.08 0 822.945 -2567.13 0 
2534.67 -2567.08 0 816.265 -2550.13 0 2538.74 -2550.08 0 
809.586 -2533.13 0 813.872 -2544.04 0 2542.82 -2533.08 0 
802.906 -2516.13 0 2546.9 -2516.08 0 796.226 -2499.13 0 
2550.99 -2499.08 0 789.546 -2482.12 0 2552.92 -2491.01 0 
2555.07 -2482.08 0 782.866 -2465.12 0 2559.15 -2465.08 0 
776.186 -2448.12 0 776.877 -2449.88 0 2563.23 -2448.07 0 
769.506 -2431.12 0 2567.31 -2431.07 0 762.827 -2414.12 0 
2571.38 -2414.07 0 756.147 -2397.12 0 2575.46 -2397.07 0 
749.467 -2380.12 0 2579.54 -2380.07 0 742.787 -2363.12 0 
2583.62 -2363.07 0 736.107 -2346.12 0 739.881 -2355.72 0 
2587.7 -2346.07 0 729.427 -2329.12 0 2589.93 -2336.78 0 
2591.78 -2329.07 0 722.747 -2312.12 0 2595.86 -2312.07 0 
716.068 -2295.12 0 2599.94 -2295.06 0 709.388 -2278.11 0 
2604.02 -2278.06 0 702.708 -2261.11 0 702.886 -2261.57 0 
2608.1 -2261.06 0 696.028 -2244.11 0 2612.18 -2244.06 0 
689.348 -2227.11 0 2616.26 -2227.06 0 682.668 -2210.11 0 
2620.34 -2210.06 0 676.341 -2193.11 0 2619.47 -2193.06 0 
672.935 -2176.11 0 2617.74 -2176.06 0 670.473 -2159.11 0 
2616.94 -2159.06 0 668.01 -2142.11 0 2615.36 -2142.06 0 
665.547 -2125.11 0 665.893 -2127.49 0 2613.83 -2125.05 0 
663.084 -2108.11 0 2612.34 -2108.05 0 660.621 -2091.11 0 
2610.9 -2091.05 0 658.159 -2074.1 0 2609.49 -2074.05 0 
655.696 -2057.1 0 2608.12 -2057.05 0 653.233 -2040.1 0 
2606.79 -2040.05 0 650.77 -2023.1 0 2605.49 -2023.05 0 
648.307 -2006.1 0 2604.23 -2006.05 0 645.845 -1989.1 0 
2603 -1989.05 0 643.382 -1972.1 0 2601.89 -1972.05 0 
640.919 -1955.1 0 2600.85 -1955.04 0 638.456 -1938.1 0 
2599.81 -1938.04 0 635.994 -1921.1 0 2598.76 -1921.04 0 
633.531 -1904.09 0 2597.72 -1904.04 0 631.068 -1887.09 0 
2596.67 -1887.04 0 629.35 -1870.09 0 2595.63 -1870.04 0 
628.06 -1853.09 0 628.907 -1864.81 0 2594.59 -1853.04 0 
626.831 -1836.09 0 2593.54 -1836.04 0 625.603 -1819.09 0 
2592.5 -1819.04 0 624.374 -1802.09 0 2591.46 -1802.04 0 
623.145 -1785.09 0 2590.41 -1785.04 0 621.916 -1768.09 0 
2589.97 -1777.77 0 2589.37 -1768.03 0 620.688 -1751.09 0 
2588.32 -1751.03 0 619.459 -1734.09 0 2587.28 -1734.03 0 
618.23 -1717.08 0 2586.24 -1717.03 0 616.936 -1700.08 0 
2585.19 -1700.03 0 615.346 -1683.08 0 2584.15 -1683.03 0 
613.757 -1666.08 0 2583.1 -1666.03 0 612.167 -1649.08 0 
1624.32 -1649.05 0 1627.95 -1649.17 0 1628.29 -1649.05 0 
2582.06 -1649.03 0 610.578 -1632.08 0 1283.99 -1632.06 0 
1294.94 -1640.97 0 1331.94 -1641.76 0 1368.94 -1642.5 0 
1405.94 -1643.2 0 1442.94 -1644.27 0 1479.94 -1645.25 0 
1516.94 -1646.22 0 1553.95 -1647.2 0 1590.95 -1648.17 0 
1664.95 -1633.14 0 1666.21 -1632.05 0 2581.02 -1632.03 0 
608.988 -1615.08 0 1261.46 -1615.06 0 1685.89 -1615.05 0 
2579.97 -1615.03 0 607.399 -1598.08 0 1244.16 -1598.06 0 
1257.94 -1612.45 0 1701.95 -1601.17 0 1705.56 -1598.05 0 
2578.93 -1598.02 0 605.809 -1581.08 0 1227.88 -1581.06 0 
1725.24 -1581.05 0 2577.88 -1581.02 0 604.22 -1564.08 0 
1211.59 -1564.06 0 1220.94 -1573.82 0 1738.95 -1569.19 0 
1744.91 -1564.04 0 2576.84 -1564.02 0 -481.104 -1548.01 0 
-483.029 -1547.1 0 -474.434 -1547.1 0 602.63 -1547.07 0 
1195.31 -1547.06 0 1764.59 -1547.04 0 2576.58 -1547.02 0 
-518.104 -1530.6 0 -519.157 -1530.1 0 -444.103 -1542.58 0 
-407.101 -1530.48 0 -405.946 -1530.1 0 600.06 -1530.07 0 
1179.03 -1530.06 0 1183.94 -1535.19 0 1775.96 -1537.22 0 
1784.27 -1530.04 0 2577.65 -1530.02 0 -555.104 -1513.19 0 
-555.285 -1513.1 0 -370.099 -1518.38 0 -353.967 -1513.1 0 
597.913 -1513.07 0 1162.75 -1513.06 0 1803.94 -1513.04 0 
2578.73 -1513.02 0 -591.413 -1496.1 0 -333.098 -1506.27 0 
-301.987 -1496.1 0 596.187 -1496.07 0 1146.46 -1496.06 0 
1146.94 -1496.56 0 1812.96 -1505.25 0 1821.14 -1496.04 0 
2579.8 -1496.02 0 -592.104 -1495.78 0 -627.541 -1479.1 0 
-296.096 -1494.17 0 -259.094 -1482.07 0 -250.008 -1479.09 0 
594.768 -1479.07 0 1130.18 -1479.06 0 1832.99 -1479.04 0 
2580.88 -1479.02 0 -629.104 -1478.37 0 -663.669 -1462.1 0 
-222.092 -1469.96 0 -198.029 -1462.09 0 593.582 -1462.07 0 
1113.9 -1462.06 0 1841.93 -1462.04 0 2581.96 -1462.02 0 
-666.104 -1460.96 0 -699.797 -1445.1 0 -185.091 -1457.86 0 
-148.089 -1445.76 0 -142.797 -1445.09 0 -74.0871 -1447.09 0 
-92.9109 -1445.09 0 -71.083 -1445.09 0 591.392 -1445.07 0 
591.931 -1447.96 0 1097.62 -1445.06 0 1109.94 -1457.93 0 
1848.91 -1445.04 0 2583.03 -1445.02 0 -703.104 -1443.02 0 
-716.229 -1428.1 0 -111.088 -1443.15 0 -49.9381 -1428.09 0 
585.846 -1428.07 0 1081.33 -1428.05 0 1849.97 -1442.13 0 
1855.08 -1428.03 0 2584.11 -1428.01 0 -728.464 -1411.1 0 
-37.0843 -1416.22 0 -33.5026 -1411.08 0 581.446 -1411.07 0 
1063.28 -1411.05 0 1072.95 -1419.3 0 1861.25 -1411.03 0 
2582.48 -1411.01 0 -740.102 -1394.93 0 -740.699 -1394.1 0 
-22.5482 -1394.08 0 577.871 -1394.07 0 1040.05 -1394.05 0 
1867.42 -1394.03 0 2579.78 -1394.01 0 -752.934 -1377.1 0 
-10.6822 -1377.08 0 574.908 -1377.07 0 1016.79 -1377.05 0 
1035.95 -1391.05 0 1873.58 -1377.03 0 2577.66 -1377.01 0 
-765.169 -1360.1 0 -0.0801806 -1363.15 0 2.06049 -1360.08 0 
572.413 -1360.06 0 995.744 -1360.05 0 998.947 -1364.01 0 
1879.75 -1360.03 0 2574.55 -1360.01 0 -777.1 -1343.52 0 
-777.404 -1343.1 0 13.9148 -1343.08 0 568.938 -1343.06 0 
981.948 -1343.05 0 1885.92 -1343.03 0 2571.36 -1343.01 0 
-789.639 -1326.1 0 25.7692 -1326.08 0 565.16 -1326.06 0 
968.086 -1326.05 0 1886.97 -1340.13 0 1892.09 -1326.03 0 
2568.17 -1326.01 0 -801.874 -1309.1 0 36.9239 -1310.08 0 
37.6235 -1309.08 0 559.979 -1309.06 0 955.636 -1309.05 0 
961.948 -1318.55 0 1898.26 -1309.03 0 2564.97 -1309.01 0 
-814.098 -1292.11 0 -814.109 -1292.1 0 49.4779 -1292.07 0 
551.75 -1292.06 0 554.939 -1299.63 0 944.337 -1292.05 0 
1904.43 -1292.02 0 2561.78 -1292.01 0 -826.344 -1275.1 0 
61.3322 -1275.07 0 547.651 -1275.06 0 933.039 -1275.05 0 
1910.59 -1275.02 0 2558.58 -1275.01 0 -838.579 -1258.1 0 
73.1866 -1258.07 0 543.77 -1258.06 0 921.741 -1258.05 0 
924.951 -1262.88 0 1916.76 -1258.02 0 2555.39 -1258 0 
-850.814 -1241.1 0 73.9281 -1257.01 0 85.0409 -1241.07 0 
539.899 -1241.06 0 910.443 -1241.05 0 1923.98 -1244.02 0 
1925.51 -1241.02 0 2553 -1245.26 0 2552.2 -1241 0 
-851.096 -1240.7 0 -863.049 -1224.1 0 96.8953 -1224.07 0 
536.037 -1224.06 0 899.145 -1224.05 0 1935.23 -1224.02 0 
2549 -1224 0 -875.284 -1207.09 0 108.75 -1207.07 0 
532.184 -1207.06 0 887.858 -1207.05 0 887.953 -1207.21 0 
1943.48 -1207.02 0 2545.81 -1207 0 -887.519 -1190.09 0 
110.932 -1203.94 0 117.95 -1190.07 0 528.341 -1190.06 0 
879.118 -1190.05 0 1950.63 -1190.02 0 2542.61 -1190 0 
-888.094 -1189.3 0 -899.754 -1173.09 0 124.231 -1173.07 0 
[...]
POINT_DATA 7157
SCALARS Pressure double
LOOKUP_TABLE default
3.0932710339 3.0932710339 3.0932710339 3.0932710339 3.0932710339 3.0932710339 3.0932710339 3.0932710339 3.0932710339 
3.0932710339 3.0932710339 3.0932710339 3.0932710339 3.0932710339 3.0932710339 3.0932710339 3.0932710339 3.0932710339 
3.0932710339 3.0932710339 3.0932710339 3.0932710339 3.0932710339 3.0932710339 3.0932710339 3.0932710339 3.0932710339 
3.0932710339 3.0932710339 3.0932710339 3.0932710339 3.0932710339 3.0932710339 3.0932710339 3.0932710339 3.0932710339 
3.0932710339 3.0932710339 3.0932710339 3.0932710339 3.0932710339 3.0932710339 3.0932710339 3.0932710339 3.0932710339 
3.0932710339 3.0932710339 3.0932710339 3.0932710339 3.0932710339 3.0932710339 3.0932710339 3.0932710339 3.0932710339 
3.0932710339 3.0932710339 3.0932710339 3.0932710339 3.0932710339 3.0932710339 3.0932710339 3.0932710339 3.0932710339 
3.0932710339 3.0932710339 3.0932710339 3.0932710339 3.0932710339 3.0932710339 3.0932710339 3.0932710339 3.0932710339 
3.0932710339 3.0932710339 3.0932710339 3.0932710339 3.0932710339 3.0932710339 3.0932710339 3.0932710339 3.0932710339 
3.0932710339 3.0932710339 3.0932710339 3.0932710339 3.0932710339 3.0932710339 3.0932710339 3.0932710339 3.0932710339 
3.0932710339 3.0932710339 3.0932710339 3.0932710339 3.0932710339 3.0932710339 3.0932710339 3.0932710339 3.0932710339 
3.0932710339 3.0932710339 3.0932710339 3.0932710339 3.0932710339 3.0932710339 3.0932710339 3.0932710339 3.0932710339 
3.0932710339 3.0932710339 3.0932710339 3.0932710339 3.0932710339 3.0932710339 3.0932710339 3.0932710339 3.0932710339 
3.0932710339 3.0932710339 3.0932710339 3.0932710339 3.0932710339 3.0932710339 3.0932710339 3.0932710339 3.0932710339 
3.0932710339 3.0932710339 3.0932710339 3.0932710339 3.0932710339 3.0932710339 3.0932710339 3.0932710339 3.0932710339 
3.0932710339 3.0932710339 3.0932710339 3.0932710339 3.0932710339 3.0932710339 3.0932710339 3.0932710339 3.0932710339 
3.0932710339 3.0932710339 3.0932710339 3.0932710339 3.0932710339 3.0932710339 3.0932710339 3.0932710339 3.0932710339 
3.0932710339 3.0932710339 3.0932710339 3.0932710339 3.0932710339 3.0932710339 3.0932710339 3.0932710339 3.0932710339 
3.0932710339 3.0932710339 3.0932710339 3.0932710339 3.0932710339 3.0932710339 3.0932710339 3.0932710339 3.0932710339 
3.0932710339 3.0932710339 3.0932710339 3.0932710339 3.0932710339 3.0932710339 3.0932710339 3.0932710339 3.0932710339 
3.0932710339 3.0932710339 3.0932710339 3.0932710339 3.0932710339 3.0932710339 3.0932710339 3.0932710339 3.0932710339 
3.0932710339 3.0932710339 3.0932710339 3.0932710339 3.0932710339 3.0932710339 3.0932710339 3.0932710339 3.0932710339 
3.0932710339 3.0932710339 3.0932710339 3.0932710339 3.0932710339 3.0932710339 3.0932710339 3.0932710339 3.0932710339 
3.0932710339 3.0932710339 3.0932710339 3.0932710339 3.0932710339 3.0932710339 3.0932710339 3.0932710339 3.0932710339 
3.0932710339 3.0932710339 3.0932710339 3.0932710339 3.0932710339 3.0932710339 3.0932710339 3.0932710339 3.0932710339 
3.0932710339 3.0932710339 3.0932710339 3.0932710339 3.0932710339 3.0932710339 3.0932710339 3.0932710339 3.0932710339 
3.0932710339 3.0932710339 3.0932710339 3.0932710339 3.0932710339 3.0932710339 3.0932710339 3.0932710339 3.0932710339 
3.0932710339 3.0932710339 3.0932710339 3.0932710339 3.0932710339 3.0932710339 3.0932710339 3.0932710339 3.0932710339 
3.0932710339 3.0932710339 3.0932710339 3.0932710339 3.0932710339 3.0932710339 3.0932710339 3.0932710339 3.0932710339 
3.0932710339 3.0932710339 3.0932710339 3.0932710339 3.0932710339 3.0932710339 3.0932710339 3.0932710339 3.0932710339 
3.0932710339 3.0932710339 3.0932710339 3.0932710339 3.0932710339 3.0932710339 3.0932710339 3.0932710339 3.0932710339 
3.0932710339 3.0932710339 3.0932710339 3.0932710339 3.0932710339 3.0932710339 3.0932710339 3.0932710339 3.0932710339 
3.0932710339 3.0932710339 3.0932710339 3.0932710339 3.0932710339 3.0932710339 3.1078652246 3.1078652246 3.1078652246 
3.0932710339 3.0932710339 3.1078652246 3.1078652246 3.1078652246 3.1078652246 3.1078652246 3.1078652246 3.1078652246 
3.1078652246 3.1078652246 3.1078652246 3.1078652246 3.1078652246 3.0932710339 3.0932710339 3.1078652246 3.1078652246 
3.0932710339 3.0932710339 3.1078652246 3.1078652246 3.1078652246 3.1078652246 3.0932710339 3.0932710339 3.1078652246 
3.1078652246 3.0932710339 3.0932710339 3.1078652246 3.1078652246 3.1078652246 3.1078652246 3.0932710339 3.0786768432 
3.0786768432 3.0786768432 3.0932710339 3.1078652246 3.1078652246 3.0932710339 3.0786768432 3.0786768432 3.0786768432 
3.0786768432 3.0786768432 3.0932710339 3.1078652246 3.1078652246 3.1078652246 3.1078652246 3.0932710339 3.0786768432 
3.0786768432 3.0786768432 3.0786768432 3.0932710339 3.1078652246 3.1078652246 3.0932710339 3.0786768432 3.0786768432 
3.0786768432 3.0932710339 3.1078652246 3.1078652246 3.1078652246 3.1078652246 3.0932710339 3.0786768432 3.0786768432 
3.0786768432 3.0786768432 3.0786768432 3.0932710339 3.1078652246 3.1078652246 3.0932710339 3.0786768432 3.0786768432 
3.0786768432 3.0786768432 3.0932710339 3.1078652246 3.1078652246 3.0932710339 3.0786768432 3.0786768432 3.0786768432 
3.0786768432 3.0786768432 3.0786768432 3.0786768432 3.0786768432 3.0932710339 3.0932710339 3.1078652246 3.1078652246 
3.1078652246 3.0932710339 3.0786768432 3.0786768432 3.0786768432 3.0786768432 3.0932710339 3.1078652246 3.1078652246 
3.1078652246 3.0932710339 3.0786768432 3.0786768432 3.0786768432 3.0932710339 3.1078652246 3.1078652246 3.1078652246 
3.0932710339 3.0786768432 3.0786768432 3.0786768432 3.0932710339 3.1078652246 3.1078652246 3.0932710339 3.0786768432 
3.0786768432 3.0932710339 3.1078652246 3.1078652246 3.1078652246 3.0932710339 3.0786768432 3.0786768432 3.0786768432 
3.0932710339 3.1078652246 3.1078652246 3.1078652246 3.0932710339 3.0786768432 3.0786768432 3.0786768432 3.0932710339 
3.1078652246 3.1078652246 3.0932710339 3.0786768432 3.0786768432 3.0932710339 3.1078652246 3.1078652246 3.1078652246 
3.0932710339 3.0786768432 3.0786768432 3.0786768432 3.0932710339 3.1078652246 3.1078652246 3.1078652246 3.0932710339 
3.0786768432 3.0786768432 3.0786768432 3.0932710339 3.0932710339 3.1078652246 3.1078652246 3.0932710339 3.0786768432 
3.0786768432 3.0932710339 3.1078652246 3.1078652246 3.0932710339 3.0786768432 3.0786768432 3.0932710339 3.1078652246 
3.1078652246 3.1078652246 3.0932710339 3.0786768432 3.0786768432 3.0786768432 3.0932710339 3.1078652246 3.1078652246 
3.1078652246 3.0932710339 3.0932710339 3.0786768432 3.0786768432 3.0786768432 3.0932710339 3.1078652246 3.1078652246 
3.0932710339 3.0786768432 3.0786768432 3.0932710339 3.1078652246 3.1078652246 3.1078652246 3.0932710339 3.0786768432 
3.0786768432 3.0786768432 3.0932710339 3.1078652246 3.1078652246 3.0932710339 3.0786768432 3.0786768432 3.0786768432 
3.0932710339 3.1078652246 3.1078652246 3.0932710339 3.0786768432 3.0786768432 3.0932710339 3.1078652246 3.1078652246 
3.1078652246 3.0932710339 3.0786768432 3.0786768432 3.0786768432 3.0932710339 3.0932710339 3.1078652246 3.1078652246 
3.0932710339 3.0786768432 3.0786768432 3.0932710339 3.1078652246 3.1078652246 3.1078652246 3.0932710339 3.0786768432 
3.0786768432 3.0786768432 3.0932710339 3.1078652246 3.1078652246 3.0932710339 3.0786768432 3.0786768432 3.0932710339 
3.1078652246 3.1078652246 3.0932710339 3.0786768432 3.0786768432 3.0786768432 3.0932710339 3.1078652246 3.1078652246 
3.0932710339 3.0786768432 3.0786768432 3.0932710339 3.1078652246 3.1078652246 3.1078652246 3.0932710339 3.0786768432 
3.0786768432 3.0786768432 3.0932710339 3.1078652246 3.1078652246 3.1078652246 3.0932710339 3.0786768432 3.0786768432 
3.0932710339 3.1078652246 3.1078652246 3.0932710339 3.0786768432 3.0786768432 3.0932710339 3.1078652246 3.1078652246 
3.1078652246 3.0932710339 3.0786768432 3.0786768432 3.0932710339 3.1078652246 3.1224594153 3.1224594153 3.1224594153 
3.1224594153 3.1224594153 3.1078652246 3.0932710339 3.0786768432 3.0786768432 3.0932710339 3.0932710339 3.1078652246 
3.1224594153 3.1224594153 3.1224594153 3.1224594153 3.1224594153 3.1078652246 3.0932710339 3.0786768432 3.0786768432 
3.0932710339 3.1078652246 3.1224594153 3.1224594153 3.1224594153 3.1224594153 3.1078652246 3.0932710339 3.0786768432 
3.0786768432 3.0786768432 3.0932710339 3.1078652246 3.1078652246 3.1224594153 3.1224594153 3.1224594153 3.1078652246 
3.0932710339 3.0786768432 3.0786768432 3.0932710339 3.1078652246 3.1224594153 3.1224594153 3.1224594153 3.1224594153 
3.1078652246 3.0932710339 3.0932710339 3.0786768432 3.0786768432 3.0932710339 3.1078652246 3.1224594153 3.1224594153 
3.1224594153 3.1224594153 3.1078652246 3.0932710339 3.0786768432 3.0786768432 3.0932710339 3.1078652246 3.1224594153 
3.1224594153 3.1224594153 3.1078652246 3.1078652246 3.0932710339 3.0786768432 3.0786768432 3.0932710339 3.1078652246 
3.1078652246 3.1224594153 3.1224594153 3.1224594153 3.1224594153 3.1078652246 3.0932710339 3.0786768432 3.0786768432 
3.0932710339 3.1078652246 3.1224594153 3.1224594153 3.1078652246 3.0932710339 3.0786768432 3.0786768432 3.0786768432 
3.0932710339 3.1078652246 3.1224594153 3.1224594153 3.1078652246 3.0932710339 3.0786768432 3.0786768432 3.0932710339 
3.0932710339 3.1078652246 3.1224594153 3.1224594153 3.1224594153 3.1224594153 3.1078652246 3.0932710339 3.0786768432 
3.0786768432 3.0932710339 3.1078652246 3.1078652246 3.1224594153 3.1224594153 3.1078652246 3.0932710339 3.0786768432 
3.0786768432 3.0932710339 3.1078652246 3.1224594153 3.1224594153 3.1078652246 3.0932710339 3.0786768432 3.0786768432 
3.0932710339 3.1078652246 3.1224594153 3.1224594153 3.1224594153 3.1224594153 3.1078652246 3.1078652246 3.0932710339 
3.0786768432 3.0786768432 3.0932710339 3.1078652246 3.1224594153 3.1224594153 3.1078652246 3.0932710339 3.0786768432 
3.0786768432 3.0786768432 3.0786768432 3.0786768432 3.0786768432 3.0640826525 3.0640826525 3.0640826525 3.0640826525 
3.0640826525 3.0640826525 3.0640826525 3.0786768432 3.0932710339 3.1078652246 3.1078652246 3.1224594153 3.1224594153 
3.1224594153 3.1078652246 3.0932710339 3.0786768432 3.0786768432 3.0786768432 3.0786768432 3.0786768432 3.0640826525 
3.0640826525 3.0640826525 3.0640826525 3.0786768432 3.0786768432 3.0932710339 3.1078652246 3.1224594153 3.1224594153 
3.1078652246 3.0932710339 3.0786768432 3.0786768432 3.0786768432 3.0786768432 3.0640826525 3.0640826525 3.0640826525 
3.0786768432 3.0932710339 3.1078652246 3.1224594153 3.1224594153 3.1224594153 3.1224594153 3.1078652246 3.0932710339 
3.0786768432 3.0786768432 3.0786768432 3.0786768432 3.0786768432 3.0786768432 3.0640826525 3.0640826525 3.0640826525 
3.0640826525 3.0786768432 3.0932710339 3.1078652246 3.1224594153 3.1224594153 3.1078652246 3.0932710339 3.0786768432 
3.0786768432 3.0786768432 3.0786768432 3.0786768432 3.0640826525 3.0640826525 3.0786768432 3.0932710339 3.1078652246 
3.1078652246 3.1224594153 3.1224594153 3.1224594153 3.1078652246 3.0932710339 3.0786768432 3.0786768432 3.0786768432 
3.0786768432 3.0786768432 3.0640826525 3.0640826525 3.0640826525 3.0640826525 3.0786768432 3.0932710339 3.1078652246 
3.1224594153 3.1224594153 3.1078652246 3.0932710339 3.0786768432 3.0786768432 3.0786768432 3.0786768432 3.0640826525 
3.0640826525 3.0786768432 3.0932710339 3.0932710339 3.1078652246 3.1224594153 3.1224594153 3.1224594153 3.1078652246 
3.0932710339 3.0786768432 3.0786768432 3.0786768432 3.0786768432 3.0640826525 3.0640826525 3.0640826525 3.0786768432 
3.0932710339 3.1078652246 3.1224594153 3.1224594153 3.137053606 3.137053606 3.137053606 3.1224594153 3.1078652246 
3.0932710339 3.0786768432 3.0786768432 3.0786768432 3.0786768432 3.0786768432 3.0786768432 3.0640826525 3.0640826525 
3.0640826525 3.0786768432 3.0932710339 3.1078652246 3.1224594153 3.137053606 3.137053606 3.137053606 3.137053606 
3.137053606 3.1224594153 3.1078652246 3.1078652246 3.0932710339 3.0786768432 3.0786768432 3.0786768432 3.0640826525 
3.0640826525 3.0786768432 3.0932710339 3.1078652246 3.1224594153 3.137053606 3.137053606 3.137053606 3.137053606 
3.1224594153 3.1078652246 3.0932710339 3.0786768432 3.0786768432 3.0786768432 3.0640826525 3.0640826525 3.0640826525 
3.0640826525 3.0786768432 3.0932710339 3.1078652246 3.1078652246 3.1224594153 3.1224594153 3.137053606 3.137053606 
3.137053606 3.137053606 3.1224594153 3.1224594153 3.1078652246 3.0932710339 3.0786768432 3.0786768432 3.0786768432 
3.0786768432 3.0640826525 3.0640826525 3.0786768432 3.0932710339 3.1078652246 3.1224594153 3.137053606 3.137053606 
3.1224594153 3.1078652246 3.0932710339 3.0932710339 3.0786768432 3.0786768432 3.0786768432 3.0786768432 3.0640826525 
3.0640826525 3.0786768432 3.0932710339 3.1078652246 3.1224594153 3.1224594153 3.137053606 3.137053606 3.137053606 
3.137053606 3.1224594153 3.1078652246 3.0932710339 3.0786768432 3.0786768432 3.0786768432 3.0640826525 3.0640826525 
3.0786768432 3.0932710339 3.1078652246 3.1078652246 3.1224594153 3.137053606 3.137053606 3.1224594153 3.1078652246 
3.0932710339 3.0786768432 3.0786768432 3.0786768432 3.0640826525 3.0640826525 3.0786768432 3.0932710339 3.1078652246 
3.1224594153 3.137053606 3.137053606 3.137053606 3.137053606 3.1224594153 3.1078652246 3.0932710339 3.0786768432 
3.0786768432 3.0786768432 3.0786768432 3.0640826525 3.0640826525 3.0640826525 3.0786768432 3.0932710339 3.0932710339 
3.1078652246 3.1224594153 3.1224594153 3.137053606 3.137053606 3.137053606 3.1224594153 3.1078652246 3.0932710339 
3.0786768432 3.0786768432 3.0786768432 3.0640826525 3.0640826525 3.0640826525 3.0786768432 3.0932710339 3.1078652246 
3.1224594153 3.137053606 3.137053606 3.137053606 3.1224594153 3.1078652246 3.0932710339 3.0786768432 3.0786768432 
3.0786768432 3.0786768432 3.0786768432 3.0640826525 3.0640826525 3.0786768432 3.0932710339 3.1078652246 3.1224594153 
3.137053606 3.137053606 3.137053606 3.1224594153 3.1224594153 3.1078652246 3.0932710339 3.0786768432 3.0786768432 
3.0786768432 3.0640826525 3.0494884618 3.0494884618 3.0494884618 3.0494884618 3.0494884618 3.0640826525 3.0786768432 
3.0932710339 3.1078652246 3.1078652246 3.1224594153 3.1224594153 3.137053606 3.137053606 3.137053606 3.1224594153 
3.1078652246 3.0932710339 3.0786768432 3.0786768432 3.0786768432 3.0640826525 3.0494884618 3.0494884618 3.0494884618 
3.0494884618 3.0640826525 3.0786768432 3.0932710339 3.1078652246 3.1224594153 3.137053606 3.137053606 3.1224594153 
3.1078652246 3.0932710339 3.0786768432 3.0786768432 3.0786768432 3.0640826525 3.0494884618 3.0494884618 3.0494884618 
3.0640826525 3.0786768432 3.0932710339 3.1078652246 3.1224594153 3.1224594153 3.137053606 3.137053606 3.137053606 
3.1224594153 3.1078652246 3.0932710339 3.0786768432 3.0786768432 3.0786768432 3.0786768432 3.0640826525 3.0640826525 
3.0494884618 3.0494884618 3.0494884618 3.0640826525 3.0786768432 3.0932710339 3.0932710339 3.1078652246 3.1078652246 
3.1224594153 3.137053606 3.137053606 3.1224594153 3.1078652246 3.0932710339 3.0786768432 3.0786768432 3.0786768432 
3.0640826525 3.0494884618 3.0494884618 3.0494884618 3.0640826525 3.0786768432 3.0932710339 3.1078652246 3.1224594153 
3.137053606 3.137053606 3.137053606 3.137053606 3.1224594153 3.1078652246 3.0932710339 3.0786768432 3.0786768432 
3.0786768432 3.0786768432 3.0786768432 3.0640826525 3.0494884618 3.0494884618 3.0640826525 3.0786768432 3.0932710339 
3.1078652246 3.1224594153 3.137053606 3.137053606 3.1224594153 3.1078652246 3.0932710339 3.0786768432 3.0786768432 
3.0786768432 3.0640826525 3.0494884618 3.0494884618 3.0494884618 3.0494884618 3.0640826525 3.0786768432 3.0786768432 
3.0932710339 3.1078652246 3.1224594153 3.1224594153 3.137053606 3.137053606 3.1224594153 3.1078652246 3.0932710339 
3.0932710339 3.0786768432 3.0786768432 3.0786768432 3.0640826525 3.0494884618 3.0494884618 3.0640826525 3.0786768432 
3.0932710339 3.1078652246 3.1078652246 3.1224594153 3.137053606 3.137053606 3.1224594153 3.1078652246 3.0932710339 
3.0786768432 3.0786768432 3.0786768432 3.0786768432 3.0786768432 3.0640826525 3.0494884618 3.0494884618 3.0640826525 
3.0786768432 3.0932710339 3.0932710339 3.1078652246 3.1224594153 3.137053606 3.137053606 3.137053606 3.1224594153 
3.1078652246 3.0932710339 3.0786768432 3.0786768432 3.0786768432 3.0786768432 3.0640826525 3.0494884618 3.0494884618 
3.0494884618 3.0640826525 3.0786768432 3.0932710339 3.1078652246 3.1224594153 3.137053606 3.137053606 3.1224594153 
3.1078652246 3.0932710339 3.0786768432 3.0786768432 3.0786768432 3.0786768432 3.0786768432 3.0640826525 3.0494884618 
3.0348942711 3.0348942711 3.0348942711 3.0348942711 3.0494884618 3.0640826525 3.0786768432 3.0932710339 3.1078652246 
3.1224594153 3.1224594153 3.137053606 3.137053606 3.1224594153 3.1078652246 3.0932710339 3.0786768432 3.0786768432 
3.0786768432 3.0786768432 3.0640826525 3.0640826525 3.0494884618 3.0348942711 3.0348942711 3.0348942711 3.0348942711 
3.0494884618 3.0494884618 3.0640826525 3.0786768432 3.0932710339 3.1078652246 3.1224594153 3.137053606 3.137053606 
3.1224594153 3.1078652246 3.0932710339 3.0786768432 3.0640826525 3.0640826525 3.0640826525 3.0640826525 3.0640826525 
3.0640826525 3.0786768432 3.0786768432 3.0786768432 3.0786768432 3.0640826525 3.0494884618 3.0348942711 3.0348942711 
3.0348942711 3.0348942711 3.0494884618 3.0640826525 3.0786768432 3.0932710339 3.1078652246 3.1078652246 3.1224594153 
3.137053606 3.137053606 3.137053606 3.1224594153 3.1078652246 3.0932710339 3.0786768432 3.0640826525 3.0640826525 
3.0640826525 3.0786768432 3.0786768432 3.0786768432 3.0786768432 3.0786768432 3.0786768432 3.0786768432 3.0640826525 
3.0494884618 3.0348942711 3.0348942711 3.0494884618 3.0640826525 3.0786768432 3.0932710339 3.1078652246 3.1224594153 
3.137053606 3.1516477967 3.1516477967 3.1516477967 3.137053606 3.1224594153 3.1224594153 3.1078652246 3.0932710339 
3.0786768432 3.0786768432 3.0640826525 3.0640826525 3.0640826525 3.0786768432 3.0786768432 3.0786768432 3.0640826525 
3.0494884618 3.0348942711 3.0348942711 3.0494884618 3.0640826525 3.0786768432 3.0932710339 3.1078652246 3.1224594153 
3.137053606 3.1516477967 3.1516477967 3.137053606 3.1224594153 3.1078652246 3.0932710339 3.0786768432 3.0640826525 
3.0640826525 3.0640826525 3.0640826525 3.0786768432 3.0786768432 3.0640826525 3.0494884618 3.0348942711 3.0348942711 
3.0203000804 3.0203000804 3.0203000804 3.0203000804 3.0348942711 3.0348942711 3.0494884618 3.0640826525 3.0786768432 
3.0786768432 3.0932710339 3.1078652246 3.1224594153 3.1224594153 3.137053606 2.9473291268 2.9473291268 2.9619233175 
2.9619233175 2.9765175082 2.9765175082 2.991111699 2.991111699 3.0057058897 3.0057058897 3.0203000804 3.0203000804 
3.0348942711 3.0348942711 3.0494884618 3.0494884618 3.0640826525 3.0640826525 3.0786768432 3.0786768432 3.0932710339 
3.0932710339 3.1078652246 3.1078652246 3.1224594153 3.1224594153 3.137053606 3.137053606 2.9473291268 2.9619233175 
2.9765175082 2.991111699 3.0057058897 3.0203000804 3.0348942711 3.0494884618 3.0640826525 3.0786768432 3.0932710339 
3.1078652246 3.1224594153 3.137053606 2.9473291268 2.9619233175 2.9765175082 2.991111699 3.0057058897 3.0203000804 
3.0348942711 3.0494884618 3.0640826525 3.0786768432 3.0932710339 3.1078652246 3.1224594153 3.137053606 2.9473291268 
2.9619233175 2.9765175082 2.991111699 3.0057058897 3.0203000804 3.0348942711 3.0494884618 3.0640826525 3.0786768432 
3.0932710339 3.1078652246 3.1224594153 3.137053606 2.9473291268 2.9619233175 2.9765175082 2.991111699 3.0057058897 
3.0203000804 3.0348942711 3.0494884618 3.0640826525 3.0786768432 3.0932710339 3.1078652246 3.1224594153 3.137053606 
2.9473291268 2.9619233175 2.9765175082 2.991111699 3.0057058897 3.0203000804 3.0348942711 3.0494884618 3.0640826525 
3.0786768432 3.0932710339 3.1078652246 3.1224594153 3.137053606 2.9473291268 2.9619233175 2.9765175082 2.991111699 
3.0057058897 3.0203000804 3.0348942711 3.0494884618 3.0640826525 3.0786768432 3.0932710339 3.1078652246 3.1224594153 
3.137053606 2.9473291268 2.9619233175 2.9765175082 2.991111699 3.0057058897 3.0203000804 3.0348942711 3.0494884618 