# vtk DataFile Version 4.2
vtk output
ASCII
DATASET UNSTRUCTURED_GRID
POINTS 1740 double
2144.07 -94.44003 0 2911 0 0 16.54298 -37.82236 0 
5.09149 -21.30132 0 1.27433 -10.75385 0 0 0 0 
2.54575 15.14293 0 6.36291 23.76126 0 14.00014 34.89063 0 
30.50239 50.70793 0 33.39435 -52.93479 0 2050.91 -103.7862 0 
60.1465 -69.72165 0 88.83633 -83.2817 0 118.7656 -94.71113 0 
153.4168 -105.7022 0 199.5806 -117.771 0 261.4466 -130.7139 0 
345.846 -144.1892 0 460.3522 -157.0592 0 608.4185 -167.1903 0 
783.2313 -172.4016 0 941.0559 -172.4533 0 1063.409 -170.1096 0 
1164.153 -166.8746 0 1263.449 -162.682 0 1375.468 -156.8941 0 
1513.293 -148.414 0 1665.281 -137.5317 0 1791.864 -127.3721 0 
2195.451 -89.09491 0 2273.924 -80.67077 0 2383.731 -68.3513 0 
2517.64 -52.47337 0 2649.227 -35.9232 0 2740.773 -23.82991 0 
2804.387 -15.13419 0 2848.802 -8.916218 0 2881.944 -4.196067 0 
56.61447 67.79801 0 84.09687 81.25172 0 112.4783 92.48395 0 
142.1748 102.3504 0 174.8563 111.6168 0 213.124 120.8806 0 
260.3759 130.5151 0 324.6539 141.1779 0 418.1422 152.9178 0 
535.6656 162.9871 0 690.9154 170.4255 0 902.6513 172.7852 0 
1100.32 169.0517 0 1270.99 162.3262 0 1462.794 151.6837 0 
1631.287 140.0952 0 1747.993 131 0 1922.788 115.9027 0 
2069.56 101.951 0 2128.804 96.0021 0 2297.147 78.11721 0 
2414.379 64.80104 0 2554.023 47.99319 0 2673.693 32.73885 0 
2757.97 21.50315 0 2814.297 13.7575 0 2852.02 8.460961 0 
2882.272 4.148909 0 1791.052 127.4402 0 1366.894 157.3738 0 
1444.38 -152.8302 0 1547.039 146.1296 0 1589.287 -143.1614 0 
1878.731 119.8675 0 1997.072 108.9828 0 1185.654 166.0472 0 
1882.536 -119.5292 0 1971.323 -111.4145 0 1684.777 136.0292 0 
2099.317 -98.9855 0 2234.809 84.9091 0 2181.695 90.53914 0 
1728.573 -132.5703 0 1718.815 133.3509 0 1834.825 123.7132 0 
1960.305 112.4444 0 2033.69 105.4648 0 2099.184 98.99892 0 
2214.291 -75.334503913 396.8421 2955.512 15.243000647 396.8421 158.0786 -30.174858009 396.8421 
147.0109 -14.340885629 396.8421 143.3217 -4.2124729128 396.8421 142.09 6.1286730842 396.8421 
144.5505 20.71444987 396.8421 148.2398 29.028693344 396.8421 155.621 39.780238146 396.8421 
171.5701 55.091372181 396.8421 174.3652 -44.622695626 396.8421 2124.254 -84.479565866 396.8421 
200.2206 -60.625396724 396.8421 227.9488 -73.511139095 396.8421 256.8748 -84.338903107 396.8421 
290.3647 -94.717296323 396.8421 334.981 -106.06616212 396.8421 394.7733 -118.16560834 396.8421 
476.3434 -130.64843085 396.8421 587.0114 -142.38049271 396.8421 730.1145 -151.29977024 396.8421 
899.0676 -155.36555743 396.8421 1051.602 -154.59665322 396.8421 1169.853 -151.73722369 396.8421 
1267.221 -148.1496904 396.8421 1363.188 -143.6699585 396.8421 1471.452 -137.62700387 396.8421 
1604.657 -128.93086697 396.8421 1751.55 -117.9331648 396.8421 1873.891 -107.77581104 396.8421 
2263.949 -70.12306696 396.8421 2339.792 -61.935052981 396.8421 2445.918 -50.012711611 396.8421 
2575.338 -34.728598651 396.8421 2702.515 -18.885014038 396.8421 2790.992 -7.3587574411 396.8421 
2852.473 0.90502904664 396.8421 2895.4 6.8024591043 396.8421 2927.431 11.273087368 396.8421 
196.807 71.67988756 396.8421 223.3682 84.776710428 396.8421 250.7983 95.740995265 396.8421 
279.4994 105.39842809 396.8421 311.0855 114.4952495 396.8421 348.0705 123.62074348 396.8421 
393.7383 133.15328077 396.8421 455.8617 143.7704884 396.8421 546.2162 155.58737179 396.8421 
659.8003 165.93014002 396.8421 809.846 173.945121 396.8421 1014.485 177.35733843 396.8421 
1205.528 174.78075636 396.8421 1370.477 169.13024616 396.8421 1555.851 159.73105048 396.8421 
1718.696 149.23215578 396.8421 1831.49 140.87668478 396.8421 2000.426 126.84646281 396.8421 
2142.278 113.7393925 396.8421 2199.537 108.11550971 396.8421 2362.236 91.096414316 396.8421 
2475.539 78.327367137 396.8421 2610.501 62.105023008 396.8421 2726.16 47.290823833 396.8421 
2807.613 36.329006455 396.8421 2862.05 28.749138006 396.8421 2898.509 23.555706006 396.8421 
2927.749 19.321680852 396.8421 1873.106 137.58494104 396.8421 1463.165 164.79753197 396.8421 
1538.054 -133.44180868 396.8421 1637.272 154.72379192 396.8421 1678.104 -123.60450747 396.8421 
1957.846 130.54790281 396.8421 2072.22 120.36078127 396.8421 1288 172.3077185 396.8421 
1961.524 -99.990233964 396.8421 2047.334 -91.977364981 396.8421 1770.393 145.50738989 396.8421 
2171.038 -79.776846869 396.8421 2301.989 97.578179015 396.8421 2250.655 102.9341073 396.8421 
1812.721 -112.96161327 396.8421 1803.29 143.04426895 396.8421 1915.411 134.12710278 396.8421 
2036.686 123.60898908 396.8421 2107.61 117.05179466 396.8421 2170.909 110.95109268 396.8421 
2284.511 -59.063073461 793.6842 3000.027 28.458400881 793.6842 299.6143 -23.641159283 793.6842 
288.9304 -8.4645631039 793.6842 285.3691 1.2592794514 793.6842 284.1801 11.199180606 793.6842 
286.5551 25.238481938 793.6842 290.1167 33.25178236 793.6842 297.2417 43.626142935 793.6842 
312.6379 58.425123586 793.6842 315.336 -37.459756732 793.6842 2197.597 -68.03588145 793.6842 
340.2947 -52.72809448 793.6842 367.0612 -64.989087789 793.6842 394.9839 -75.264518666 793.6842 
427.3123 -85.08536492 793.6842 470.3812 -95.785555053 793.6842 528.0998 -107.13394132 793.6842 
606.8411 -118.74581272 793.6842 713.6708 -129.49762123 793.6842 851.8104 -137.39668803 793.6842 
1014.904 -140.52475308 793.6842 1162.147 -139.10420173 793.6842 1276.298 -135.84637238 793.6842 
1370.288 -131.99329819 793.6842 1462.927 -127.30295586 793.6842 1567.436 -121.08002797 793.6842 
1696.021 -112.24187004 793.6842 1837.82 -101.1856147 793.6842 1955.917 -91.056372763 793.6842 
2332.447 -53.963674292 793.6842 2405.659 -45.970559591 793.6842 2508.105 -34.370536543 793.6842 
2633.037 -19.560608708 793.6842 2755.801 -4.2739193271 793.6842 2841.209 6.809144807 793.6842 
2900.561 14.736938339 793.6842 2941.997 20.385799652 793.6842 2972.917 24.663290358 793.6842 
336.9995 74.495291254 793.6842 362.6396 87.213483784 793.6842 389.1182 97.884835301 793.6842 
416.8239 107.30542968 793.6842 447.3145 116.2004828 793.6842 483.0167 125.14839606 793.6842 
527.1009 134.52862536 793.6842 587.0697 145.02944744 793.6842 674.2905 156.81713166 793.6842 
783.9349 167.2966453 793.6842 928.7766 175.70574774 793.6842 1126.317 179.92729637 793.6842 
1310.735 178.29562079 793.6842 1469.963 173.55565998 793.6842 1648.908 165.24271415 793.6842 
1806.105 155.72604231 793.6842 1914.987 148.05503653 793.6842 2078.064 135.0429025 793.6842 
2214.996 122.77399878 793.6842 2270.269 117.48217641 793.6842 2427.326 101.38172055 793.6842 
2536.699 89.227060832 793.6842 2666.98 73.705422361 793.6842 2778.628 59.462155502 793.6842 
2857.255 48.884924469 793.6842 2909.806 41.553719287 793.6842 2945.001 36.522995728 793.6842 
2973.224 32.417206242 793.6842 1955.16 145.01528644 793.6842 1559.437 169.75996451 793.6842 
1631.729 -116.81305996 793.6842 1727.505 160.72472749 793.6842 1766.921 -106.87356776 793.6842 
2036.96 138.48918537 793.6842 2147.368 128.98386498 793.6842 1390.347 176.26927546 793.6842 
2040.511 -83.333729064 793.6842 2123.346 -75.417461729 793.6842 1856.009 152.31503167 793.6842 
2242.759 -63.417728715 793.6842 2369.167 107.5279459 793.6842 2319.614 112.59356264 793.6842 
1896.869 -96.219480182 793.6842 1887.765 150.0515985 793.6842 1995.998 141.81303649 793.6842 
2113.066 132.02153428 793.6842 2181.531 125.88343895 793.6842 2242.634 120.15224302 793.6842 
2354.732 -45.537320648 1190.526 3044.539 39.418493903 1190.526 441.15 -18.085413414 1190.526 
430.8497 -3.5387765594 1190.526 427.4164 5.7939748808 1190.526 426.2701 15.343398564 1190.526 
428.5601 28.846445561 1190.526 431.9934 36.56193355 1190.526 438.8627 46.560136685 1190.526 
453.7057 60.842027111 1190.526 456.3069 -31.307365484 1190.526 2270.94 -54.342404171 1190.526 
480.3688 -45.886983516 1190.526 506.1737 -57.568557439 1190.526 533.0934 -67.336786199 1190.526 
564.26 -76.650565864 1190.526 605.7815 -86.767253283 1190.526 661.4265 -97.449130519 1190.526 
737.3385 -108.30180513 1190.526 840.33 -118.21877206 1190.526 973.5064 -125.27621989 1190.526 
1130.74 -127.66325106 1190.526 1272.693 -125.75374842 1190.526 1382.742 -122.21326274 1190.526 
1473.356 -118.1825502 1190.526 1562.666 -113.36109421 1190.526 1663.42 -107.03866935 1190.526 
1787.385 -98.143789327 1190.526 1924.09 -87.103456903 1190.526 2037.944 -77.047577468 1190.526 
2400.946 -40.542870394 1190.526 2471.527 -32.727453894 1190.526 2570.292 -21.411960555 1190.526 
2690.735 -7.0075202865 1190.526 2809.091 7.8153278238 1190.526 2891.43 18.535734258 1190.526 
2948.647 26.191413075 1190.526 2988.597 31.640233356 1190.526 3018.403 35.762984719 1190.526 
477.1918 76.379185961 1190.526 501.9109 88.699319609 1190.526 527.4382 99.055309999 1190.526 
554.1485 108.21380548 1190.526 583.5435 116.87775457 1190.526 617.963 125.61241137 1190.526 
660.4633 134.79437751 1190.526 718.2775 145.11387036 1190.526 802.3645 156.77433163 1190.526 
908.0698 167.26319621 1190.526 1047.707 175.89473233 1190.526 1238.151 180.6929488 1190.526 
1415.942 179.79835928 1190.526 1569.449 175.80279245 1190.526 1741.965 168.41052406 1190.526 
1893.514 159.75374996 1190.526 1998.484 152.69756773 1190.526 2155.702 140.62569511 1190.526 
2287.714 129.15700911 1190.526 2341.001 124.18968417 1190.526 2492.415 109.01262534 1190.526 
2597.858 97.500184361 1190.526 2723.46 82.740536611 1190.526 2831.095 69.146615878 1190.526 
2906.899 59.024300701 1190.526 2957.56 51.995998364 1190.526 2991.49 47.167601092 1190.526 
3018.699 43.223760635 1190.526 2037.214 149.88766378 1190.526 1655.708 172.4582198 1190.526 
1725.403 -102.73454285 1190.526 1817.738 164.31764008 1190.526 1855.738 -92.773442167 1190.526 
2116.075 143.83334525 1190.526 2222.516 134.97079872 1190.526 1492.694 178.13380506 1190.526 
2119.498 -69.410131068 1190.526 2199.357 -61.603547629 1190.526 1941.625 156.62283457 1190.526 
2314.479 -49.807785988 1190.526 2436.346 114.81690445 1190.526 2388.573 119.59113659 1190.526 
1981.017 -82.167214847 1190.526 1972.24 154.53916669 1190.526 2076.584 146.92029256 1190.526 
[...]
POINT_DATA 1740
FIELD FieldData 1
Pressure 1 1740 double
3.1054032043 3.0158910125 3.0096043803 2.9857829979 2.9781382494 2.9576297475 2.9707893861 2.988239423 3.0193026279 
3.0329815657 3.011467336 3.1094858465 3.03435586 3.049032234 3.066356882 3.0658350947 3.0831365334 3.0882222959 
3.1098596852 3.1146520218 3.1341076588 3.142771525 3.1455095107 3.152603819 3.1475287873 3.1433909564 3.1392344756 
3.1346464685 3.1271500787 3.1209014209 3.1027464551 3.09922537 3.0936689324 3.0853527918 3.0743950676 3.0642308624 
3.0543044218 3.0454628378 3.0374655456 3.0690721718 3.0808186033 3.0936496704 3.1065087592 3.1124211403 3.1196273653 
3.1266229328 3.134559035 3.1500646898 3.1624995892 3.1785723763 3.1888217398 3.1954089896 3.2008594777 3.2057282662 
3.2094324324 3.2123581731 3.2129472354 3.0704161996 3.0737376599 3.0741334308 3.0698742827 3.0620132184 3.0525475249 
3.0421630396 3.0325256811 3.0254887381 3.0241788595 3.2119348713 3.2038877221 3.1374945897 3.2072682486 3.130635006 
3.211765148 3.2040608236 3.2023621338 3.1171245423 3.1131770166 3.2107237737 3.1072426283 3.0760823942 3.0760692053 
3.1235028839 3.2120487405 3.2119317741 3.2153565313 3.0602723913 3.06899661 3.1022809137 3.0220663912 3.0274761714 
3.0009710067 3.0078800803 2.9859390228 2.9940759198 3.0060097086 3.0341028259 3.0525800078 3.0361086567 3.1066897973 
3.056329227 3.0689991863 3.0822424156 3.0862018195 3.1018920532 3.1113985957 3.125168034 3.1303471653 3.1415822734 
3.1462264544 3.1502933999 3.1525351263 3.1470964755 3.1418965136 3.1355360579 3.1307180042 3.1237972629 3.1180090067 
3.0998886629 3.0956574018 3.0900902797 3.0817620996 3.0709314213 3.0608760671 3.0511086634 3.04345868 3.0290566939 
3.0855369684 3.1061846626 3.1181104016 3.1268098508 3.1355892923 3.1405475842 3.1458627092 3.1554630444 3.1674657838 
3.1765588508 3.1850568957 3.1925642912 3.1987782423 3.2047734071 3.2072787352 3.2094915248 3.2129842662 3.2200771746 
3.1034756474 3.0982231729 3.0897223829 3.0836412179 3.074928467 3.0631865418 3.0523838183 3.0424387085 3.0362255697 
3.0355556731 3.2130585458 3.2059819702 3.1339857144 3.2097523815 3.1268867314 3.2134362836 3.0961259058 3.2038740937 
3.1141147627 3.1102012699 3.2113641164 3.1045452736 3.093000229 3.0962266127 3.1206461815 3.212108255 3.2127289404 
3.1751910967 3.1017644709 3.1007961077 3.0998724189 3.0242421438 3.0282267427 3.0007675704 3.0020047152 2.9843294681 
2.9967374 3.0100929875 3.0386827923 3.0599219984 3.0448812446 3.1041370038 3.0597721842 3.0789127674 3.0969684496 
3.1028864876 3.1166328051 3.124562888 3.1382137459 3.1446186227 3.1522122687 3.1554806159 3.1552795137 3.154330117 
3.1463820663 3.1395945393 3.1330448855 3.1272592251 3.1208952781 3.1155114335 3.0975492248 3.0934916752 3.0878589085 
3.0797544869 3.068835024 3.0587153789 3.0496722433 3.0423126857 3.0291278039 3.0923437038 3.1139431618 3.1320548558 
3.1412003467 3.1528748444 3.1606841416 3.1701367519 3.1746054001 3.182763648 3.1924043246 3.1966811342 3.2019095682 
3.2044520197 3.2108443294 3.2125044555 3.2130807356 3.2150198634 3.1790759308 3.0987802499 3.0999016091 3.0950956123 
3.0888705813 3.0804161394 3.069096246 3.0588411588 3.048644543 3.0413761019 3.0418554327 3.2150261471 3.2118327229 
3.1307005574 3.2138268944 3.1237882818 3.2150156732 3.0984418466 3.2087816529 3.1116988715 3.1077440246 3.2138936171 
3.1020636222 3.0980268936 3.1000901737 3.1178956754 3.214353874 3.2148845497 3.0917765656 3.0989666585 3.100043247 
3.0980233414 3.0249120527 3.0288544515 3.000650244 3.0027173869 2.9826114198 2.9922102971 3.0066706269 3.0393120447 
3.0607590799 3.0453684551 3.1021711748 3.0656560178 3.0834119904 3.1032144663 3.1114260836 3.124558384 3.1319530006 
3.145909996 3.1536934596 3.1597545965 3.1613234905 3.1594065389 3.155773492 3.1458608276 3.1386034974 3.1316543454 
3.1255470386 3.1190797113 3.1134079356 3.0955118806 3.0915901525 3.0863080869 3.0783088267 3.0677991688 3.0576361572 
3.0491448919 3.0417808585 3.0294792304 3.0958451912 3.1190375556 3.1341662963 3.146217511 3.1529311351 3.1640842969 
3.1761720982 3.1848117613 3.1926075497 3.2030849662 3.2079689423 3.2109460616 3.2125964272 3.2183072423 3.2192680141 
3.219039933 3.2202281538 3.0936019461 3.0972946686 3.0969225634 3.0933226057 3.0876414594 3.0795839174 3.0691465051 
3.0593338041 3.0496401019 3.0420152539 3.0427952708 3.2202839871 3.2188224374 3.1292215312 3.2199819609 3.1220734333 
3.2212501921 3.0951515121 3.2160530842 3.1096207306 3.1057309522 3.2196605256 3.0999899531 3.0957684103 3.0965057784 
3.115917171 3.2197711653 3.2217071819 3.0971140819 3.0965103743 3.0969361165 3.0965590489 3.024505656 3.030796382 
3.0012853224 3.0066837614 2.9863235143 2.9937320823 3.0074190013 3.0411312795 3.0616509273 3.0471052916 3.1007721656 
3.0688375104 3.0864990682 3.1042228342 3.1138170986 3.1272037296 3.1375301681 3.1491845379 3.1575981138 3.1644959928 
3.1649070832 3.1613552803 3.1553009866 3.1443666445 3.1367583846 3.1298379578 3.123726561 3.1174813527 3.1117043871 
3.0942118097 3.0902495692 3.0851196195 3.077227871 3.0670352955 3.0570313827 3.0487906943 3.0413567731 3.0298696769 
3.0970229973 3.1205553318 3.1353937077 3.148069753 3.1571080361 3.167948959 3.1788740389 3.184214173 3.1947967044 
3.2073054826 3.2153530539 3.2183061634 3.2199650494 3.2248635612 3.2257074647 3.225093091 3.2260534707 3.0942089082 
3.0971787258 3.0964366348 3.0921493125 3.0865050163 3.0784176773 3.0679897715 3.0580096891 3.0487381028 3.0408748951 
3.0421054898 3.2261040506 3.2256079636 3.1274528848 3.2260608642 3.1205444723 3.1221497138 3.0971720868 3.2231504235 
3.1079615764 3.1041919726 3.2255855606 3.0985004167 3.094732639 3.0956625578 3.1143278322 3.2257310927 3.2339399005 
3.0957112403 3.0968940604 3.0968721989 3.095363617 3.0237749474 3.0317996611 3.0022756365 3.0078304053 2.9870997075 
2.9949226112 3.0086637279 3.0418442194 3.0632411848 3.048719501 3.0995674246 3.0706126705 3.0890641542 3.1056772119 
3.115893281 3.1293217181 3.1405446091 3.1527961541 3.1620466121 3.1685762719 3.1682490588 3.1628375337 3.1540779665 
3.1427496486 3.1350726048 3.128382836 3.1221937869 3.1160971987 3.1104322331 3.0930354474 3.0891692956 3.0841446964 
3.0763879535 3.0663637822 3.0564428674 3.0483615022 3.040909174 3.0300855413 3.0981481635 3.1219646496 3.1368816824 
3.1495168766 3.1584117607 3.1698156449 3.1818665014 3.1886163305 3.1993853234 3.2113670521 3.2212668676 3.2250672637 
3.2270027717 3.2322458944 3.2326177675 3.2313823929 3.2318019042 3.0918500441 3.0958796802 3.0954549425 3.0910541492 
3.0853550989 3.0773663878 3.0670725841 3.0571024152 3.0479706987 3.0400370037 3.0412205297 3.2311708215 3.2325208182 
3.1259404414 3.2323740781 3.1191033952 3.0835773137 3.0948151008 3.2299968056 3.1067092706 3.1030118684 3.2314892785 
3.0972546754 3.0936191644 3.0946841467 3.1130039974 3.2316511951 3.1842200078 3.0932654774 3.09557418 3.0957270324 
3.0947258233 3.0230879643 3.0319426051 3.0023391244 3.0069647914 2.9867309644 2.9948394992 3.0088555547 3.0419526196 
3.063633053 3.049590478 3.0988795583 3.0715156689 3.0904556207 3.10688567 3.1175921758 3.1311000803 3.1429667751 
3.1553075394 3.1648854742 3.1722536821 3.1710485748 3.1640893091 3.1526843182 3.1415789207 3.1340690607 3.1276084211 
3.1212098684 3.1153118882 3.1096363491 3.0923958243 3.0885876227 3.0835286499 3.0759141365 3.0659321363 3.0560713524 
3.0480350586 3.0405784942 3.0300923253 3.098525045 3.1225313743 3.1377409196 3.1504045697 3.1596898117 3.1711274929 
3.1830033866 3.1905810638 3.2017253192 3.2144986463 3.2254169551 3.2313573696 3.2337684084 3.2392282427 3.2402789515 
3.2388190688 3.238401744 3.0926238691 3.0941442688 3.0935248152 3.0891827136 3.083578628 3.0757393708 3.0657654918 
3.0560513964 3.0470187343 3.0391386882 3.0405641943 3.2383270578 3.2399888209 3.1250461558 3.2399410682 3.1182393555 
3.0902862927 3.0941734562 3.2368351219 3.105865903 3.10223449 3.2383114698 3.0967131602 3.0917239472 3.0924067639 
3.1123125434 3.2380447723 3.0921198217 3.0935611588 3.0944731379 3.0938305016 3.09445565 3.0223753545 3.0321430861 
3.0024654511 3.0068752335 2.9869585493 2.9948755407 3.0089234564 3.0422089169 3.0638607679 3.0499345484 3.0985632277 
3.0719950219 3.091050689 3.1073851748 3.1184971545 3.1320570698 3.144411089 3.1568616048 3.1666044595 3.1749488167 
3.1731613931 3.1648202746 3.1514210594 3.1409667289 3.1335973181 3.1274906718 3.1208118445 3.115111387 3.1094883301 
3.0921514618 3.0884523563 3.0833689002 3.0758430633 3.0658287328 3.0559308427 3.0478743547 3.0404207768 3.0301109825 
3.0987823834 3.1229338521 3.1382972164 3.1510176604 3.1604516551 3.171971801 3.183879889 3.1921478069 3.2035997205 
3.2165670555 3.2280919397 3.2352359745 3.2392287366 3.245378929 3.2469421157 3.2461664519 3.2454091702 3.0888240108 
3.0919188727 3.091555826 3.0866944373 3.0813712717 3.0737074321 3.0640507449 3.0546130103 3.0457689701 3.0379492004 
3.0397796922 3.2452836889 3.2469566799 3.1247124883 3.2469029374 3.1179561549 3.0855917606 3.091450186 3.2425680966 
3.1056335911 3.102057267 3.2455959816 3.0964244614 3.0890095598 3.0899808898 3.1122193329 3.2451537874 3.0729513121 
3.089114594 3.091785104 3.0918213341 3.0944090272 3.0216571703 3.0324100549 3.0026058962 3.0070616917 2.987269386 
2.9951748318 3.0092460519 3.0426179828 3.0642919516 3.0500125738 3.0985891751 3.0721882871 3.0911650026 3.1073157791 
3.1188159778 3.1324080602 3.1451648674 3.1579088479 3.1675973005 3.1768860555 3.1746182095 3.1651862461 3.1508204568 
3.1412527465 3.1338676676 3.1278760376 3.1209453045 3.1153711525 3.1096732129 3.0921908638 3.0885390239 3.0834107802 
3.0759415217 3.0658933646 3.0560143677 3.0478766596 3.040403087 3.0301061152 3.0992514877 3.1234793567 3.1389232517 
3.1517112686 3.1612665646 3.1728593445 3.1847282484 3.1934898381 3.205345936 3.2183851666 3.2302065084 3.2388230988 
3.2432867659 3.2502695957 3.2529854548 3.2523283674 3.251951407 3.0851036522 3.0886135065 3.088629202 3.0839719582 
3.0789263936 3.07149571 3.0621317012 3.0530008406 3.0443389673 3.0366386853 3.0388870108 3.2531456693 3.2521122341 
3.1249251289 3.2526322701 3.1180644479 3.0829329342 3.0876065007 3.2468725072 3.105785165 3.1021668427 3.2520442853 
3.0964666777 3.0861946302 3.0872694151 3.1125023864 3.2517785237 3.0779374754 3.0846149828 3.0884958188 3.0885072331 
3.0946052605 3.0210666634 3.0327240793 3.0028399292 3.0077007023 2.9876334577 2.9955983472 3.0096659955 3.0430877943 
3.0648253267 3.0497830607 3.0987706518 3.0719824835 3.0911279129 3.1073131551 3.1191152247 3.1326292916 3.1457582636 
3.1584144461 3.1690289978 3.1777381562 3.1753171935 3.165277698 3.1504272418 3.1414392533 3.1341495497 3.1282038939 
3.1212068426 3.1154650734 3.1098893333 3.0924127375 3.0887818907 3.0835620696 3.076121011 3.0660160983 3.0561374705 
3.047906233 3.040447235 3.029927341 3.0999060567 3.124175287 3.1398001037 3.1526544381 3.1623208686 3.1739668303 
3.1858294808 3.1949523345 3.2072160264 3.2202435905 3.2323092448 3.2415526753 3.2466538542 3.2540366786 3.2576788658 
3.2576681561 3.2575960874 3.0824726481 3.0854408665 3.0856356918 3.081286114 3.0764944209 3.0693004062 3.0601536334 
3.0513403523 3.0428516633 3.035339806 3.0379679944 3.2583180059 3.256391456 3.1252092355 3.2578210917 3.1183214258 
3.0804644328 3.0847218458 3.2503218392 3.1059612748 3.1021291304 3.2575073979 3.0966921561 3.0833455774 3.0843284096 
3.1126552461 3.2573692818 3.082679368 3.0819431994 3.0856432835 3.085361075 3.0950388456 3.0207475921 3.0330623432 
3.0030403719 3.0085183438 2.9880299477 2.9961018243 3.0101179803 3.0436316734 3.0654699568 3.0493690856 3.0992937701 
3.0715119971 3.0906661323 3.1070083819 3.1191063185 3.1324149673 3.1458052408 3.1584787554 3.1693669469 3.1783506595 
3.1758515314 3.1655163478 3.1504590991 3.1417895051 3.1344983825 3.1285755763 3.1216471535 3.1156926092 3.11017314 
3.0928302866 3.0891658639 3.0838547277 3.07641621 3.0662359602 3.0563474321 3.0479962976 3.0405981787 3.0295098003 
3.1007550829 3.125063962 3.1409232588 3.1538694054 3.1636497878 3.1753405745 3.1872426004 3.1966782228 3.2093123966 
3.2222952286 3.2345584372 3.2442694074 3.2494940518 3.257208882 3.2616153829 3.2619261624 3.2621182319 3.080814496 
3.0822092677 3.0824219558 3.0786405627 3.074107481 3.0671200994 3.0581688998 3.0496382322 3.0413440542 3.034105264 
3.0370141789 3.2620071595 3.2597800111 3.1256629025 3.2618512306 3.1187270837 3.0815466416 3.0821766346 3.2531894373 
3.1062648298 3.1024266165 3.261909571 3.0971893397 3.0804878685 3.0813538251 3.1129618971 3.261881281 3.0942283341 
3.0795870885 3.0825202436 3.0821675468 3.0956432157 3.0206528021 3.0334286711 3.0032216936 3.0093276559 2.9884306701 
2.9966701259 3.0105940587 3.044239439 3.0662339568 3.0486808118 3.0999175155 3.0707756415 3.0898469436 3.1063642403 
3.1187189042 3.1318407222 3.1453603234 3.1582042177 3.1693174562 3.1785630794 3.1761762747 3.1660966411 3.1508751246 
3.142342752 3.1350242825 3.1290739745 3.1222284764 3.116272198 3.1107117635 3.0933840125 3.0896959896 3.0842890261 
3.0768357294 3.0665641473 3.0566342118 3.0481884442 3.0408389721 3.0291063023 3.1018143633 3.1261909637 3.1422764092 
3.155353849 3.1652363579 3.1769809332 3.1889638395 3.1986523122 3.2116691759 3.2246305016 3.2370556735 3.2469966443 
3.2522888406 3.2600987333 3.2649535023 3.2656433612 3.2661569818 3.0776292495 3.0791683259 3.0792000398 3.0761581575 
3.0719263482 3.0651097255 3.0563669125 3.0480611213 3.0399696389 3.0330300996 3.0360871562 3.265406237 3.262896772 
3.1262645281 3.2653402141 3.1192933166 3.0789199799 3.0789290086 3.255924079 3.1067640454 3.1029950634 3.2656603234 
3.0978742558 3.0778252354 3.0785044519 3.1135739201 3.2656426661 3.1062878517 3.0763190344 3.079382393 3.0791164337 
3.0963163472 3.0209568597 3.0337666689 3.0033800299 3.010026871 2.9889310637 2.9973205411 3.0111708661 3.0448933886 
3.0671574838 3.0477570467 3.1005696079 3.0697479367 3.0887703203 3.1054395025 3.1178314093 3.1309463251 3.1445224557 
3.1576262732 3.1688370591 3.1782719116 3.1762472805 3.1668386036 3.1516931626 3.1430733931 3.1356621804 3.1296605135 
3.122911522 3.1169536054 3.1113769904 3.0940025129 3.0903103234 3.0848260108 3.0773267781 3.0669583198 3.0569684396 
3.0484278166 3.041125322 3.0289003208 3.1030915794 3.1275864658 3.1437798339 3.1570818972 3.1670518026 3.1788863593 
3.1909887199 3.200898243 3.2143324383 3.2272558221 3.2397585187 3.2498900877 3.2551848233 3.2629795739 3.2681797086 
3.2690535436 3.269500783 3.0745875086 3.0774927273 3.0773388914 3.0743089685 3.0703355328 3.0636210433 3.0550738185 
3.0469647416 3.0390124979 3.0323807427 3.0355158765 3.2691496411 3.2659125913 3.1269451216 3.2685457769 3.1199678374 
3.0749131757 3.0770391105 3.258738767 3.1074039072 3.1035746539 3.2691208042 3.0985738319 3.0759766637 3.0766203639 
3.1142769457 3.2690541787 3.1035551605 3.0738301547 3.0774869194 3.0774156164 3.0969760151 3.0217541807 3.0341684871 
3.0035601655 3.0107954199 2.9895186089 2.9980373516 3.0118862659 3.0458610395 3.0682689658 3.0466384213 3.1011773388 
3.0685103073 3.0876916443 3.1037371807 3.1160246706 3.1294248563 3.1430917138 3.1567408504 3.1681376432 3.1776865146 
3.1762152124 3.167853811 3.152938921 3.1439334737 3.1363283965 3.130211569 3.1236151686 3.1175832244 3.1120744542 
3.0946423064 3.0909707335 3.0854058781 3.0778839433 3.0673955562 3.0573448306 3.0487123705 3.0414634457 3.0288315422 
3.1046095916 3.1292447525 3.1455197712 3.1590788585 3.1690757824 3.181048132 3.1933085717 3.2033731083 3.2172333041 
3.2300581375 3.2426621089 3.2528379805 3.2582180317 3.2659502459 3.2713819272 3.2724547314 3.2729214826 3.0732561406 
3.0767827648 3.0764727081 3.0736747775 3.0697795296 3.0631644261 3.0547177527 3.0467775918 3.0389318447 3.0326060086 
3.0357338231 3.27334626 3.268969966 3.1276262543 3.2717734191 3.1206187083 3.0711450761 3.0760469776 3.2617052853 
3.108082404 3.1042239406 3.2724492968 3.0992335589 3.0753756346 3.0759367636 3.1150265726 3.2724195997 3.0776416833 
3.0723147123 3.0766057689 3.0767435594 3.0977019126 3.0228432144 3.0343227396 3.0037973542 3.0109305699 2.9901404232 
2.9990049665 3.0128257815 3.0469126422 3.0694357148 3.0454007179 3.1020063158 3.0671689025 3.0864687706 3.1019597614 
3.114115847 3.1276804555 3.1412520633 3.155658956 3.167239037 3.176713778 3.1766682062 3.1693784372 3.1547836784 
3.1449461793 3.1370309127 3.1306434873 3.124374125 3.1185542934 3.1130338953 3.0954116129 3.0916768718 3.0860424554 
3.078488665 3.0678531323 3.0577415375 3.0490127641 3.0417303902 3.0287499718 3.1061140631 3.1310408697 3.1472946311 
3.1610753257 3.1711452524 3.1831149715 3.1956629158 3.2058493263 3.2199901978 3.232817406 3.2453790736 3.2558410651 
3.2613784893 3.2690714818 3.2747750873 3.2761378953 3.2771332927 3.0714491018 3.077025004 3.076846692 3.07411914 
3.0704900557 3.0640163547 3.0557098735 3.0478598328 3.0400465302 3.0338222952 3.0371399183 3.2824462542 3.2723101148 
3.1282601678 3.2751715749 3.1213158384 3.0650277252 3.0756803137 3.264853143 3.1089450691 3.1050218295 3.2759602112 
3.0999976359 3.075722262 3.0764737451 3.116125179 3.2761815645 3.0492745617 3.0722433674 3.0766849823 3.0769979171 
3.098368005 3.0237147359 3.0330292386 3.0032681613 3.010937311 2.9899803422 2.999838685 3.0135750727 3.0468161165 
3.0701021619 3.0437986311 3.1027071609 3.0652571796 3.0846003035 3.1002052334 3.1124837354 3.1259711002 3.1389891697 
3.154747386 3.1659219916 3.1761295122 3.1775609829 3.1712992232 3.1570512636 3.1461549561 3.1378690858 3.1311316355 
3.1251044924 3.1201415171 3.1141229775 3.0960349678 3.0922175448 3.0865905407 3.0788593813 3.0680007942 3.05780904 
3.0490462728 3.0415977933 3.028097891 3.1071584719 3.132591876 3.1487277984 3.162514434 3.1727365655 3.1850227366 
3.1977494525 3.2080722403 3.2223275307 3.2355153999 3.2487745892 3.2586194455 3.2648535689 3.2729914189 3.2800526169 
3.2814507307 3.282115422 3.0760790757 3.0784734627 3.0785515149 3.0763305277 3.0723566178 3.0657681842 3.0575423065 
3.0497971754 3.0418503983 3.0356808484 3.0387758275 3.2509464294 3.276664582 3.1290726732 3.2805276931 3.1221289743 
3.0736507794 3.0772660767 3.2683937902 3.1100075979 3.1057842416 3.2804521074 3.1006143689 3.07803311 3.0786532376 
3.1172731451 3.2796676596 3.0758989851 3.0752652129 3.0786004151 3.0783513776 3.0985060687 3.0241859319 3.0314747623 
3.001410441 3.0071174589 2.9880614289 2.9993300987 3.0134944059 3.0475036981 3.0707938656 3.0418746497 3.1025679669 
3.0639727396 3.0829114547 3.0995724896 3.1111216237 3.1248840956 3.1368770385 3.154806895 3.1658505027 3.1772487969 
3.1812634863 3.1745556692 3.160575813 3.147118054 3.1385356208 3.1319528017 3.1254652266 3.1193363567 3.1142821063 
3.0963203112 3.0923458974 3.0868188669 3.0792394844 3.0680325204 3.0574561877 3.048602223 3.0409534794 3.0265316466 
3.108859843 3.1340421632 3.1504838714 3.1650293537 3.1750781784 3.1874231744 3.1999802912 3.2109262858 3.22621529 
3.2399950901 3.2532826951 3.266577043 3.2704813772 3.2779544195 3.2833558799 3.2826553381 3.2319948821 3.0756225545 
3.0804794463 3.0802650676 3.0785623735 3.0744851655 3.0683784212 3.0597975245 3.0521832382 3.0443557828 3.0376250931 
3.0413881883 3.0625479295 3.2813597966 3.1291269131 3.2837089843 3.1224037279 3.0758495467 3.0799152055 3.2735512479 
3.1098246202 3.1057655791 3.2804525132 3.1007594644 3.0798474012 3.0801673883 3.1166206026 3.2866124459 3.0701302973 
3.0763246426 3.0798530059 3.0802703411 3.098262369 3.0265262266 3.032800318 3.004710516 3.0088031713 2.9901685285 
3.0032550817 3.0175670366 3.0549747102 3.0745308991 3.0446672628 3.1017096044 3.0632774455 3.0833034357 3.0996180284 
3.1130646548 3.1264574048 3.1384067403 3.1582275155 3.1786326929 3.1840474096 3.1847408667 3.1762521858 3.1600503487 
3.1471827236 3.1381664468 3.130951643 3.1242804857 3.117187712 3.1119032424 3.095355084 3.0929250795 3.0874768969 
3.0780768964 3.0683259997 3.0569466417 3.0477276804 3.0390010449 3.0255542703 3.1089888603 3.1354543501 3.1569247146 
3.1711320858 3.1801288878 3.197595695 3.206643851 3.217052739 3.2347846621 3.2474700635 3.2635483131 3.2717026401 