# vtk DataFile Version 4.2
vtk output
ASCII
DATASET POLYDATA
POINTS 15727 float
-87.2202 -2823.79 5800 -100.786 -2821.22 5800 -83.4062 -2821.22 5800 
-116.22 -2813.91 5800 -124.863 -2808.22 5800 -66.4974 -2808.22 5800 
-144.602 -2795.22 5800 -58.2177 -2804.26 5800 -44.7926 -2795.22 5800 
-145.22 -2794.81 5800 -164.054 -2782.22 5800 -29.2152 -2784.73 5800 
-25.4859 -2782.21 5800 -174.219 -2775.47 5800 -183.288 -2769.22 5800 
-6.17879 -2769.21 5800 -202.157 -2756.22 5800 -0.212691 -2765.2 5800 
13.1281 -2756.21 5800 -203.219 -2755.49 5800 -221.025 -2743.22 5800 
28.7898 -2745.66 5800 32.4348 -2743.21 5800 -232.218 -2735.51 5800 
-239.893 -2730.22 5800 51.7416 -2730.21 5800 -258.762 -2717.22 5800 
57.7923 -2726.13 5800 71.0484 -2717.21 5800 -261.218 -2715.53 5800 
-277.63 -2704.22 5800 86.7948 -2706.6 5800 90.3551 -2704.21 5800 
-290.217 -2695.54 5800 -296.499 -2691.22 5800 109.662 -2691.2 5800 
-315.367 -2678.22 5800 115.797 -2687.07 5800 128.969 -2678.2 5800 
-319.217 -2675.56 5800 -334.235 -2665.22 5800 144.8 -2667.54 5800 
148.276 -2665.2 5800 -348.216 -2655.58 5800 -353.104 -2652.22 5800 
167.583 -2652.2 5800 -371.972 -2639.22 5800 173.802 -2648.01 5800 
186.889 -2639.2 5800 -377.216 -2635.6 5800 -390.84 -2626.22 5800 
202.805 -2628.48 5800 206.196 -2626.2 5800 -406.215 -2615.62 5800 
-409.709 -2613.22 5800 225.503 -2613.19 5800 -428.577 -2600.21 5800 
231.807 -2608.95 5800 244.787 -2600.19 5800 -435.215 -2595.64 5800 
-447.445 -2587.21 5800 260.81 -2589.37 5800 264.036 -2587.19 5800 
-464.214 -2576.43 5800 -468.283 -2574.21 5800 283.279 -2574.19 5800 
-493.214 -2562.23 5800 -495.331 -2561.21 5800 289.812 -2569.77 5800 
302.522 -2561.19 5800 -522.214 -2548.29 5800 -522.378 -2548.21 5800 
318.815 -2550.18 5800 321.765 -2548.19 5800 -549.425 -2535.21 5800 
341.008 -2535.18 5800 -551.214 -2534.35 5800 -576.472 -2522.21 5800 
347.817 -2530.58 5800 360.251 -2522.18 5800 -580.214 -2520.42 5800 
-603.519 -2509.21 5800 376.82 -2510.99 5800 379.494 -2509.18 5800 
-609.214 -2506.48 5800 -630.567 -2496.21 5800 398.737 -2496.18 5800 
-638.214 -2492.54 5800 -657.614 -2483.21 5800 405.822 -2491.39 5800 
417.98 -2483.18 5800 -667.214 -2478.6 5800 -684.661 -2470.21 5800 
434.825 -2471.79 5800 437.223 -2470.18 5800 -696.214 -2464.66 5800 
-711.708 -2457.21 5800 456.465 -2457.17 5800 4001.95 -2459.76 5800 
4000.61 -2457.05 5800 4006.19 -2457.05 5800 -725.214 -2450.72 5800 
-738.832 -2444.21 5800 463.827 -2452.2 5800 475.709 -2444.17 5800 
3993.12 -2444.05 5800 4026 -2444.05 5800 -754.213 -2436.85 5800 
-766.21 -2431.21 5800 492.83 -2432.6 5800 495.009 -2431.17 5800 
3982.82 -2431.05 5800 4030.95 -2440.78 5800 4045.67 -2431.05 5800 
-783.213 -2423.23 5800 -793.9 -2418.21 5800 514.395 -2418.17 5800 
3972.95 -2421.99 5800 3970.49 -2418.05 5800 4059.95 -2421.6 5800 
4065.33 -2418.05 5800 -812.213 -2409.62 5800 -821.591 -2405.21 5800 
521.832 -2413.12 5800 534.049 -2405.17 5800 3962.38 -2405.05 5800 
4084.99 -2405.04 5800 -841.213 -2396 5800 -849.281 -2392.21 5800 
550.835 -2394.11 5800 553.814 -2392.17 5800 3954.27 -2392.05 5800 
4088.96 -2402.42 5800 4104.66 -2392.04 5800 -870.213 -2382.39 5800 
-876.971 -2379.21 5800 573.714 -2379.16 5800 3946.16 -2379.05 5800 
4117.96 -2383.25 5800 4124.32 -2379.04 5800 -899.213 -2368.77 5800 
-904.662 -2366.21 5800 579.837 -2375.16 5800 593.614 -2366.16 5800 
3943.95 -2375.52 5800 3938.04 -2366.05 5800 4143.98 -2366.04 5800 
-928.213 -2355.16 5800 -932.352 -2353.21 5800 608.84 -2356.21 5800 
613.515 -2353.16 5800 3929.93 -2353.05 5800 4146.96 -2364.07 5800 
4163.65 -2353.04 5800 -957.213 -2341.54 5800 -960.042 -2340.21 5800 
633.415 -2340.16 5800 3921.82 -2340.04 5800 4175.96 -2344.89 5800 
4183.31 -2340.04 5800 -986.213 -2327.93 5800 -987.733 -2327.21 5800 
637.842 -2337.27 5800 653.315 -2327.16 5800 3914.96 -2329.04 5800 
3913.71 -2327.04 5800 4202.97 -2327.03 5800 -1015.21 -2314.31 5800 
-1015.42 -2314.21 5800 666.845 -2318.32 5800 673.215 -2314.15 5800 
3905.6 -2314.04 5800 4204.97 -2325.72 5800 4222.64 -2314.03 5800 
-1043.11 -2301.21 5800 693.116 -2301.15 5800 3897.49 -2301.04 5800 
4233.97 -2306.54 5800 4242.75 -2301.03 5800 -1044.21 -2300.7 5800 
-1070.8 -2288.21 5800 695.847 -2299.37 5800 713.016 -2288.15 5800 
3889.37 -2288.04 5800 4262.97 -2288.49 5800 4263.75 -2288.03 5800 
-1073.21 -2287.08 5800 -1098.49 -2275.21 5800 724.85 -2280.42 5800 
732.916 -2275.15 5800 3885.96 -2282.57 5800 3881.26 -2275.04 5800 
4285.66 -2275.03 5800 -1102.21 -2273.47 5800 -1126.18 -2262.21 5800 
752.817 -2262.15 5800 3873.15 -2262.04 5800 4291.97 -2271.28 5800 
4307.58 -2262.03 5800 -1131.21 -2259.85 5800 -1153.87 -2249.21 5800 
753.852 -2261.47 5800 772.717 -2249.15 5800 3865.04 -2249.04 5800 
4320.98 -2254.08 5800 4329.49 -2249.02 5800 -1160.21 -2246.24 5800 
-1181.57 -2236.21 5800 782.854 -2242.52 5800 792.617 -2236.14 5800 
3856.96 -2236.09 5800 3856.93 -2236.04 5800 4349.98 -2236.87 5800 
4351.41 -2236.02 5800 -1189.21 -2232.62 5800 -1209.26 -2223.21 5800 
811.857 -2223.57 5800 812.517 -2223.14 5800 3848.82 -2223.04 5800 
4373.32 -2223.02 5800 -1218.21 -2213.62 5800 -1220.24 -2210.21 5800 
832.417 -2210.14 5800 3840.7 -2210.04 5800 4378.98 -2219.66 5800 
4395.24 -2210.02 5800 -1228.15 -2197.21 5800 840.859 -2204.63 5800 
853.454 -2197.14 5800 3832.59 -2197.04 5800 4407.98 -2202.46 5800 
4417.15 -2197.02 5800 -1236.05 -2184.21 5800 869.862 -2188.2 5800 
878.034 -2184.14 5800 3827.96 -2189.62 5800 3824.48 -2184.04 5800 
4436.98 -2185.25 5800 4439.07 -2184.01 5800 -1243.96 -2171.21 5800 
898.864 -2173.77 5800 904.164 -2171.14 5800 3816.37 -2171.04 5800 
4460.98 -2171.01 5800 -1247.21 -2165.86 5800 -1251.86 -2158.21 5800 
927.866 -2159.34 5800 930.294 -2158.13 5800 3808.26 -2158.03 5800 
4465.99 -2168.04 5800 4482.9 -2158.01 5800 -1259.77 -2145.21 5800 
956.424 -2145.13 5800 3800.14 -2145.03 5800 4494.99 -2150.84 5800 
4504.81 -2145.01 5800 4640 -2145.45 5800 4638.43 -2145 5800 
4669 -2151.1 5800 4673.4 -2145 5800 -1267.67 -2132.21 5800 
956.868 -2144.91 5800 982.554 -2132.13 5800 3798.97 -2143.15 5800 
3792.03 -2132.03 5800 4523.99 -2133.63 5800 4530.44 -2132.01 5800 
4610.99 -2137.22 5800 4592.63 -2132.01 5800 4680.79 -2132 5800 
-1275.58 -2119.21 5800 985.87 -2130.48 5800 1008.68 -2119.13 5800 
3783.92 -2119.03 5800 4552.99 -2120.76 5800 4581.99 -2128.99 5800 
4688.19 -2119 5800 -1276.21 -2118.17 5800 -1283.48 -2106.21 5800 
1014.87 -2116.05 5800 1034.81 -2106.13 5800 3775.81 -2106.03 5800 
4695.58 -2106 5800 -1291.39 -2093.21 5800 1043.87 -2101.62 5800 
1060.94 -2093.12 5800 3769.97 -2096.67 5800 3767.7 -2093.03 5800 
4698 -2101.74 5800 4702.97 -2093 5800 -1299.29 -2080.2 5800 
1072.88 -2087.19 5800 1087.07 -2080.12 5800 3759.59 -2080.03 5800 
4710.36 -2080 5800 -1305.2 -2070.49 5800 -1307.2 -2067.2 5800 
1101.88 -2072.76 5800 1113.2 -2067.12 5800 3751.47 -2067.03 5800 
4717.76 -2067 5800 -1315.11 -2054.2 5800 1130.88 -2058.33 5800 
1139.33 -2054.12 5800 3743.36 -2054.03 5800 4725.15 -2054 5800 
-1323.01 -2041.2 5800 1159.88 -2043.89 5800 1163.79 -2041.12 5800 
3740.97 -2050.2 5800 3735.25 -2041.03 5800 4727.01 -2050.73 5800 
4732.54 -2040.99 5800 -1330.92 -2028.2 5800 1188.88 -2029.03 5800 
1189.54 -2028.11 5800 3729.13 -2028.03 5800 4739.94 -2027.99 5800 
-1334.2 -2022.8 5800 -1338.82 -2015.2 5800 1196.98 -2015.11 5800 
3725.76 -2015.03 5800 4747.33 -2014.99 5800 -1346.73 -2002.2 5800 
1207.34 -2002.11 5800 3724.91 -2002.03 5800 4754.72 -2001.99 5800 
-1354.63 -1989.2 5800 1217.89 -1992.63 5800 1220.6 -1989.11 5800 
2305.59 -1989.07 5800 2319.93 -1997.34 5800 2344.6 -1989.07 5800 
3724.81 -1989.02 5800 4756.01 -2001.32 5800 4772.67 -1988.99 5800 
-1362.54 -1976.2 5800 1230.62 -1976.11 5800 2295.5 -1976.07 5800 
2348.93 -1987.62 5800 2377.93 -1977.9 5800 2383.39 -1976.07 5800 
3724.71 -1976.02 5800 4785.01 -1982.59 5800 4797.75 -1975.99 5800 
-1363.2 -1975.11 5800 -1369.85 -1963.2 5800 1240.63 -1963.11 5800 
2290.55 -1963.07 5800 2290.93 -1964.51 5800 2406.93 -1968.18 5800 
2422.18 -1963.07 5800 3724.6 -1963.02 5800 4814.01 -1967.56 5800 
4822.84 -1962.98 5800 -1376.8 -1950.2 5800 1246.89 -1954.98 5800 
1250.65 -1950.11 5800 2287.09 -1950.07 5800 2435.93 -1958.46 5800 
2462.15 -1950.07 5800 3724.5 -1950.02 5800 4843.02 -1952.52 5800 
4847.92 -1949.98 5800 -1383.43 -1937.2 5800 1260.71 -1937.11 5800 
2283.64 -1937.07 5800 2464.94 -1949.21 5800 2493.94 -1942.26 5800 
2510.94 -1937.06 5800 3724.4 -1937.02 5800 4872.02 -1937.49 5800 
4873 -1936.98 5800 -1389.72 -1924.2 5800 1271.04 -1924.1 5800 
2280.19 -1924.07 5800 2522.94 -1933.55 5800 2551.53 -1924.06 5800 
3724.3 -1924.02 5800 4898.08 -1923.98 5800 -1392.2 -1919.06 5800 
-1396 -1911.2 5800 1275.9 -1918.09 5800 1281.63 -1911.1 5800 
2276.74 -1911.07 5800 2551.94 -1923.92 5800 2580.94 -1914.3 5800 
2590.72 -1911.06 5800 3724.19 -1911.02 5800 4901.02 -1922.46 5800 
4923.16 -1910.98 5800 -1402.28 -1898.19 5800 1292.29 -1898.1 5800 
2273.29 -1898.07 5800 2609.94 -1904.68 5800 2629.9 -1898.06 5800 
3724.09 -1898.02 5800 4930.02 -1907.42 5800 4948.25 -1897.98 5800 
-1408.56 -1885.19 5800 1302.95 -1885.1 5800 2269.84 -1885.07 5800 
2638.95 -1895.05 5800 2667.95 -1885.43 5800 2669.09 -1885.05 5800 
3723.99 -1885.02 5800 4959.03 -1892.39 5800 4973.33 -1884.97 5800 
-1414.84 -1872.19 5800 1304.9 -1882.72 5800 1313.61 -1872.1 5800 
2266.39 -1872.07 5800 2696.95 -1875.81 5800 2708.27 -1872.05 5800 
3723.88 -1872.02 5800 4988.03 -1877.35 5800 4998.41 -1871.97 5800 
-1421.12 -1859.19 5800 1324.27 -1859.1 5800 2262.93 -1859.06 5800 
2725.95 -1866.18 5800 2747.46 -1859.05 5800 3723.78 -1859.01 5800 
5017.03 -1862.32 5800 5023.49 -1858.97 5800 -1421.19 -1859.05 5800 
-1427.4 -1846.19 5800 1333.9 -1847.35 5800 1334.93 -1846.1 5800 
2259.48 -1846.06 5800 2261.94 -1855.31 5800 2754.95 -1856.56 5800 
2779.11 -1846.05 5800 3723.68 -1846.01 5800 5046.03 -1847.29 5800 
5048.57 -1845.97 5800 -1433.68 -1833.19 5800 1345.35 -1833.09 5800 
2256.03 -1833.06 5800 2783.95 -1843.79 5800 2795.96 -1833.04 5800 
3723.58 -1833.01 5800 5073.66 -1832.97 5800 -1439.96 -1820.19 5800 
[...]
POINT_DATA 15727
SCALARS Pressure double
LOOKUP_TABLE default
3.0899970258 3.0899970258 3.0899970258 3.0899970258 3.0899970258 3.0899970258 3.0899970258 3.0899970258 3.0899970258 
3.0899970258 3.0899970258 3.0899970258 3.0899970258 3.0899970258 3.0899970258 3.0899970258 3.0899970258 3.0899970258 
3.0899970258 3.0899970258 3.0899970258 3.0899970258 3.0899970258 3.0899970258 3.0899970258 3.0899970258 3.0899970258 
3.0899970258 3.0899970258 3.0899970258 3.0899970258 3.0899970258 3.0899970258 3.0899970258 3.0899970258 3.0899970258 
3.0899970258 3.0899970258 3.0899970258 3.0899970258 3.0899970258 3.0899970258 3.0899970258 3.0899970258 3.0899970258 
3.0899970258 3.0899970258 3.0899970258 3.0899970258 3.0899970258 3.0899970258 3.0899970258 3.0899970258 3.0899970258 
3.0899970258 3.0899970258 3.0899970258 3.0899970258 3.0899970258 3.0899970258 3.0899970258 3.0899970258 3.0899970258 
3.0899970258 3.0899970258 3.0899970258 3.0899970258 3.0899970258 3.0899970258 3.0899970258 3.0899970258 3.0899970258 
3.0899970258 3.0899970258 3.0899970258 3.0899970258 3.0899970258 3.0899970258 3.0899970258 3.0899970258 3.0899970258 
3.0899970258 3.0899970258 3.0899970258 3.0899970258 3.0899970258 3.0899970258 3.0899970258 3.0899970258 3.0899970258 
3.0899970258 3.0899970258 3.0899970258 3.0899970258 3.0899970258 3.0899970258 3.0899970258 3.0899970258 3.0899970258 
3.0899970258 3.0899970258 3.0899970258 3.0899970258 3.0899970258 3.0899970258 3.0899970258 3.0899970258 3.0899970258 
3.0899970258 3.0899970258 3.0899970258 3.0899970258 3.0899970258 3.0899970258 3.0899970258 3.0899970258 3.0899970258 
3.0899970258 3.0899970258 3.0899970258 3.0899970258 3.0899970258 3.0899970258 3.0899970258 3.0899970258 3.0899970258 
3.0899970258 3.0899970258 3.0899970258 3.0899970258 3.0899970258 3.0899970258 3.0899970258 3.0899970258 3.0899970258 
3.0899970258 3.0899970258 3.0899970258 3.0899970258 3.0899970258 3.0899970258 3.0899970258 3.0899970258 3.0899970258 
3.0899970258 3.0899970258 3.0899970258 3.0899970258 3.0899970258 3.0899970258 3.0899970258 3.0899970258 3.0899970258 
3.0899970258 3.0899970258 3.0899970258 3.0899970258 3.0899970258 3.0899970258 3.0899970258 3.0899970258 3.0899970258 
3.0899970258 3.0899970258 3.0899970258 3.0899970258 3.0899970258 3.0899970258 3.0899970258 3.0899970258 3.0899970258 
3.0899970258 3.0899970258 3.0899970258 3.0899970258 3.0899970258 3.0899970258 3.0899970258 3.0899970258 3.0899970258 
3.0899970258 3.0899970258 3.0899970258 3.0899970258 3.0899970258 3.0899970258 3.0899970258 3.0899970258 3.0899970258 
3.0899970258 3.0899970258 3.0899970258 3.0899970258 3.0899970258 3.0899970258 3.0899970258 3.0899970258 3.0899970258 
3.0899970258 3.0899970258 3.0899970258 3.0899970258 3.0899970258 3.0899970258 3.0899970258 3.0899970258 3.0899970258 
3.0899970258 3.0899970258 3.0899970258 3.0899970258 3.0899970258 3.0899970258 3.0899970258 3.0899970258 3.0899970258 
3.0899970258 3.0899970258 3.0899970258 3.0899970258 3.0899970258 3.0899970258 3.0899970258 3.0899970258 3.0899970258 
3.0899970258 3.0899970258 3.0899970258 3.0899970258 3.0899970258 3.0899970258 3.0899970258 3.0899970258 3.0899970258 
3.0899970258 3.0899970258 3.0899970258 3.0899970258 3.0899970258 3.0899970258 3.0899970258 3.0899970258 3.0899970258 
3.0899970258 3.0899970258 3.0899970258 3.0899970258 3.0899970258 3.0899970258 3.0899970258 3.0899970258 3.0899970258 
3.0899970258 3.0899970258 3.0899970258 3.0899970258 3.0899970258 3.0899970258 3.0899970258 3.0899970258 3.0899970258 
3.0899970258 3.0899970258 3.0899970258 3.0899970258 3.0899970258 3.0899970258 3.0899970258 3.0899970258 3.0899970258 
3.0899970258 3.0899970258 3.0899970258 3.0899970258 3.0899970258 3.0899970258 3.0899970258 3.0899970258 3.0899970258 
3.0899970258 3.0899970258 3.0899970258 3.0899970258 3.0899970258 3.0899970258 3.0899970258 3.0899970258 3.0899970258 
3.0899970258 3.0899970258 3.0899970258 3.0899970258 3.0899970258 3.0899970258 3.0899970258 3.0899970258 3.0899970258 
3.0899970258 3.0899970258 3.0899970258 3.0899970258 3.0899970258 3.0899970258 3.0899970258 3.0899970258 3.0899970258 
3.0899970258 3.0899970258 3.0899970258 3.0899970258 3.0899970258 3.0899970258 3.0899970258 3.0899970258 3.0899970258 
3.0899970258 3.0899970258 3.0899970258 3.0899970258 3.0899970258 3.0899970258 3.0899970258 3.0899970258 3.0899970258 
3.0899970258 3.0899970258 3.0899970258 3.0899970258 3.0899970258 3.0899970258 3.0958801803 3.0958801803 3.0958801803 
3.0899970258 3.0899970258 3.0899970258 3.0899970258 3.0899970258 3.0958801803 3.0958801803 3.0958801803 3.0958801803 
3.0899970258 3.0899970258 3.0899970258 3.0899970258 3.0899970258 3.0899970258 3.0958801803 3.0958801803 3.0958801803 
3.0958801803 3.0899970258 3.0899970258 3.0899970258 3.0899970258 3.0899970258 3.0899970258 3.0958801803 3.0958801803 
3.0958801803 3.0899970258 3.0899970258 3.0899970258 3.0899970258 3.0899970258 3.0958801803 3.0958801803 3.0958801803 
3.0958801803 3.0899970258 3.0899970258 3.0899970258 3.0899970258 3.0899970258 3.0958801803 3.0958801803 3.0958801803 
3.0899970258 3.0899970258 3.0899970258 3.0899970258 3.0899970258 3.0899970258 3.0958801803 3.0958801803 3.0958801803 
3.0958801803 3.0899970258 3.0899970258 3.0899970258 3.0899970258 3.0899970258 3.0958801803 3.0958801803 3.0958801803 
3.0899970258 3.0899970258 3.0899970258 3.0899970258 3.0899970258 3.0958801803 3.0958801803 3.0958801803 3.0958801803 
3.0899970258 3.0899970258 3.0899970258 3.0899970258 3.0899970258 3.0899970258 3.0958801803 3.0958801803 3.0958801803 
3.0899970258 3.0899970258 3.0899970258 3.0899970258 3.0899970258 3.0958801803 3.0958801803 3.0958801803 3.0899970258 
3.0899970258 3.0899970258 3.0899970258 3.0899970258 3.0899970258 3.0899970258 3.0958801803 3.0958801803 3.0958801803 
3.0958801803 3.0899970258 3.0899970258 3.0899970258 3.0899970258 3.0899970258 3.0958801803 3.0958801803 3.0958801803 
3.0899970258 3.0899970258 3.0899970258 3.0899970258 3.0958801803 3.0958801803 3.0958801803 3.0899970258 3.0899970258 
3.0899970258 3.0899970258 3.0899970258 3.0899970258 3.0958801803 3.0958801803 3.0899970258 3.0899970258 3.0899970258 
3.0899970258 3.0899970258 3.0899970258 3.0958801803 3.0958801803 3.0899970258 3.0899970258 3.0899970258 3.0899970258 
3.0899970258 3.0958801803 3.0958801803 3.0958801803 3.0899970258 3.0899970258 3.0899970258 3.0899970258 3.0899970258 
3.0899970258 3.0958801803 3.0958801803 3.0899970258 3.0899970258 3.0899970258 3.0899970258 3.0899970258 3.0899970258 
3.0958801803 3.0958801803 3.0899970258 3.0899970258 3.0899970258 3.0899970258 3.0899970258 3.0958801803 3.0958801803 
3.0958801803 3.0958801803 3.0899970258 3.0899970258 3.0899970258 3.0899970258 3.0899970258 3.0899970258 3.0958801803 
3.0958801803 3.0899970258 3.0899970258 3.0899970258 3.0899970258 3.0899970258 3.0899970258 3.0958801803 3.0958801803 
3.0958801803 3.0899970258 3.0899970258 3.0899970258 3.0899970258 3.0899970258 3.0958801803 3.0958801803 3.0899970258 
3.0899970258 3.0899970258 3.0899970258 3.0899970258 3.0899970258 3.0958801803 3.0958801803 3.0899970258 3.0899970258 
3.0899970258 3.0899970258 3.0899970258 3.0899970258 3.0958801803 3.0958801803 3.0958801803 3.0899970258 3.0899970258 
3.0899970258 3.0899970258 3.0899970258 3.0958801803 3.0958801803 3.0899970258 3.0899970258 3.0899970258 3.0899970258 
3.0899970258 3.0899970258 3.0958801803 3.0958801803 3.0899970258 3.0899970258 3.0899970258 3.0899970258 3.0899970258 
3.0958801803 3.0958801803 3.0958801803 3.0958801803 3.0899970258 3.0899970258 3.0899970258 3.0899970258 3.0958801803 
3.0958801803 3.0899970258 3.0899970258 3.0899970258 3.0899970258 3.0899970258 3.0899970258 3.0958801803 3.0958801803 
3.0958801803 3.0899970258 3.0899970258 3.0899970258 3.0899970258 3.0899970258 3.0958801803 3.0958801803 3.0899970258 
3.0899970258 3.0899970258 3.0899970258 3.0899970258 3.0958801803 3.0958801803 3.0899970258 3.0899970258 3.0899970258 
3.0899970258 3.0899970258 3.0958801803 3.0958801803 3.0958801803 3.0899970258 3.0899970258 3.0899970258 3.0899970258 
3.0958801803 3.0958801803 3.0899970258 3.0899970258 3.0899970258 3.0899970258 3.0899970258 3.0899970258 3.0958801803 
3.0958801803 3.0899970258 3.0899970258 3.0899970258 3.0899970258 3.0899970258 3.0958801803 3.0958801803 3.0958801803 
3.0899970258 3.0899970258 3.0899970258 3.0899970258 3.0899970258 3.0958801803 3.0958801803 3.0958801803 3.0899970258 
3.0899970258 3.0899970258 3.0899970258 3.0899970258 3.0958801803 3.0958801803 3.0899970258 3.0899970258 3.0899970258 
3.0899970258 3.0899970258 3.0899970258 3.0958801803 3.0958801803 3.0958801803 3.0899970258 3.0899970258 3.0899970258 
3.0899970258 3.0958801803 3.0958801803 3.0899970258 3.0899970258 3.0899970258 3.0899970258 3.0899970258 3.0899970258 
3.0958801803 3.0958801803 3.0958801803 3.0899970258 3.0899970258 3.0899970258 3.0899970258 3.0958801803 3.0958801803 
3.0958801803 3.0899970258 3.0899970258 3.0899970258 3.0899970258 3.0899970258 3.0958801803 3.0958801803 3.0899970258 
3.0899970258 3.0899970258 3.0899970258 3.0899970258 3.0899970258 3.0899970258 3.0958801803 3.0958801803 3.0899970258 
3.0899970258 3.0899970258 3.0899970258 3.0958801803 3.0958801803 3.0899970258 3.0899970258 3.0899970258 3.0899970258 
3.0899970258 3.0958801803 3.0958801803 3.0899970258 3.0899970258 3.0899970258 3.0899970258 3.0899970258 3.0899970258 
3.0958801803 3.0958801803 3.0899970258 3.0899970258 3.0899970258 3.0899970258 3.0899970258 3.0958801803 3.0958801803 
3.0899970258 3.0899970258 3.0899970258 3.0899970258 3.0899970258 3.0899970258 3.0958801803 3.0958801803 3.0958801803 
3.0899970258 3.0899970258 3.0899970258 3.0899970258 3.0958801803 3.0958801803 3.0899970258 3.0899970258 3.0899970258 
3.0899970258 3.0899970258 3.0958801803 3.0958801803 3.0899970258 3.0899970258 3.0899970258 3.0899970258 3.0899970258 
3.0958801803 3.0958801803 3.0899970258 3.0899970258 3.0899970258 3.0899970258 3.0899970258 3.0899970258 3.0958801803 
3.1017633348 3.1017633348 3.1017633348 3.0958801803 3.0899970258 3.0899970258 3.0899970258 3.0899970258 3.0899970258 
3.0899970258 3.0958801803 3.1017633348 3.1017633348 3.1017633348 3.0958801803 3.0899970258 3.0899970258 3.0899970258 
3.0899970258 3.0958801803 3.1017633348 3.1017633348 3.1017633348 3.1017633348 3.1017633348 3.0958801803 3.0958801803 
3.0899970258 3.0899970258 3.0899970258 3.0899970258 3.0899970258 3.0958801803 3.0958801803 3.1017633348 3.1017633348 
3.1017633348 3.0958801803 3.0899970258 3.0899970258 3.0899970258 3.0899970258 3.0899970258 3.0958801803 3.1017633348 
3.1017633348 3.1017633348 3.1017633348 3.1017633348 3.0958801803 3.0899970258 3.0899970258 3.0899970258 3.0899970258 
3.0899970258 3.0958801803 3.1017633348 3.1017633348 3.1017633348 3.1017633348 3.0958801803 3.0899970258 3.0899970258 
3.0899970258 3.0899970258 3.0899970258 3.0958801803 3.1017633348 3.1017633348 3.1017633348 3.0958801803 3.0899970258 
3.0899970258 3.0899970258 3.0899970258 3.0899970258 3.0958801803 3.1017633348 3.1017633348 3.1017633348 3.1017633348 
3.0958801803 3.0899970258 3.0899970258 3.0899970258 3.0899970258 3.0899970258 3.0958801803 3.1017633348 3.1017633348 
3.0958801803 3.0899970258 3.0899970258 3.0899970258 3.0899970258 3.0899970258 3.0958801803 3.1017633348 3.1017633348 
3.1017633348 3.0958801803 3.0899970258 3.0899970258 3.0899970258 3.0899970258 3.0899970258 3.0958801803 3.1017633348 
3.1017633348 3.0958801803 3.0899970258 3.0899970258 3.0899970258 3.0899970258 3.0899970258 3.0899970258 3.0958801803 
3.1017633348 3.1017633348 3.1017633348 3.0958801803 3.0899970258 3.0899970258 3.0899970258 3.0899970258 3.0958801803 
3.1017633348 3.1017633348 3.1017633348 3.0958801803 3.0899970258 3.0899970258 3.0899970258 3.0899970258 3.0899970258 
3.0958801803 3.1017633348 3.1017633348 3.0958801803 3.0899970258 3.0899970258 3.0899970258 3.0899970258 3.0899970258 
3.0899970258 3.0958801803 3.1017633348 3.1017633348 3.0958801803 3.0899970258 3.0899970258 3.0899970258 3.0899970258 
3.0958801803 3.1017633348 3.1017633348 3.1017633348 3.0958801803 3.0899970258 3.0899970258 3.0899970258 3.0899970258 
3.0899970258 3.0958801803 3.1017633348 3.1017633348 3.1017633348 3.0958801803 3.0899970258 3.0899970258 3.0899970258 
3.0899970258 3.0899970258 3.0958801803 3.1017633348 3.1017633348 3.1017633348 3.0958801803 3.0899970258 3.0899970258 
3.0899970258 3.0899970258 3.0958801803 3.1017633348 3.1017633348 3.0958801803 3.0899970258 3.0899970258 3.0899970258 
3.0899970258 3.0899970258 3.0899970258 3.0958801803 3.1017633348 3.1017633348 3.0958801803 3.0899970258 3.0899970258 
3.0899970258 3.0899970258 3.0958801803 3.0958801803 3.1017633348 3.1017633348 3.1017633348 3.0958801803 3.0899970258 
3.0899970258 3.0899970258 3.0899970258 3.0899970258 3.0899970258 3.0958801803 3.1017633348 3.1017633348 3.1017633348 
3.0958801803 3.0899970258 3.0899970258 3.0899970258 3.0899970258 3.0899970258 3.0899970258 3.0958801803 3.1017633348 
3.1017633348 3.0958801803 3.0899970258 3.0899970258 3.0899970258 3.0899970258 3.0958801803 3.1017633348 3.1017633348 
3.0958801803 3.0899970258 3.0899970258 3.0899970258 3.0899970258 3.0899970258 3.0899970258 3.0958801803 3.1017633348 
3.1017633348 3.0958801803 3.0899970258 3.0899970258 3.0899970258 3.0899970258 3.0899970258 3.0899970258 3.0958801803 
3.1017633348 3.1076464892 3.1076464892 3.1076464892 3.1017633348 3.0958801803 3.0899970258 3.0899970258 3.0899970258 
3.0899970258 3.0899970258 3.0958801803 3.1017633348 3.1017633348 3.1076464892 3.1076464892 3.1076464892 3.1076464892 
3.1017633348 3.0958801803 3.0958801803 3.0899970258 3.0899970258 3.0899970258 3.0899970258 3.0899970258 3.0958801803 
3.1017633348 3.1076464892 3.1076464892 3.1076464892 3.1076464892 3.1017633348 3.1017633348 3.0958801803 3.0899970258 
3.0841138714 3.0841138714 3.0841138714 3.0899970258 3.0899970258 3.0899970258 3.0899970258 3.0958801803 3.1017633348 
3.1076464892 3.1076464892 3.1076464892 3.1017633348 3.0958801803 3.0899970258 3.0841138714 3.0841138714 3.0841138714 
3.0899970258 3.0899970258 3.0899970258 3.0958801803 3.1017633348 3.1076464892 3.1076464892 3.1076464892 3.1076464892 
3.1017633348 3.0958801803 3.0899970258 3.0841138714 3.0841138714 3.0841138714 3.0899970258 3.0899970258 3.0899970258 
3.0899970258 3.0958801803 3.1017633348 3.1076464892 3.1076464892 3.1076464892 3.1076464892 3.1076464892 3.1017633348 
3.0958801803 3.0899970258 3.0899970258 3.0841138714 3.0841138714 3.0841138714 3.0841138714 3.0899970258 3.0899970258 
3.0899970258 3.0899970258 3.0958801803 3.1017633348 3.1017633348 3.1076464892 3.1076464892 3.1076464892 3.1017633348 
3.0958801803 3.0899970258 3.0841138714 3.0841138714 3.0841138714 3.0899970258 3.0899970258 3.0899970258 3.0899970258 
3.0958801803 3.1017633348 3.1076464892 3.1076464892 3.1076464892 3.1017633348 3.0958801803 3.0899970258 3.0841138714 
3.0841138714 3.0841138714 3.0899970258 3.0899970258 3.0899970258 3.0958801803 3.1017633348 3.1076464892 3.1076464892 
3.1017633348 3.0958801803 3.0899970258 3.0841138714 3.0841138714 3.0841138714 3.0899970258 3.0899970258 3.0899970258 
3.0958801803 3.1017633348 3.1076464892 3.1076464892 3.1017633348 3.0958801803 3.0899970258 3.0841138714 3.0841138714 
3.0841138714 3.0841138714 3.0899970258 3.0899970258 3.0899970258 3.0958801803 3.1017633348 3.1076464892 3.1076464892 
3.1076464892 3.1017633348 3.0958801803 3.0899970258 3.0841138714 3.0841138714 3.0841138714 3.0899970258 3.0899970258 
3.0899970258 3.0899970258 3.0958801803 3.1017633348 3.1017633348 3.1076464892 3.1076464892 3.1076464892 3.1017633348 
3.0958801803 3.0899970258 3.0841138714 3.0841138714 3.0841138714 3.0841138714 3.0899970258 3.0899970258 3.0899970258 
3.0899970258 3.0958801803 3.0958801803 3.1017633348 3.1076464892 3.1076464892 3.1017633348 3.0958801803 3.0899970258 
3.0899970258 3.0841138714 3.0841138714 3.0899970258 3.0899970258 3.0899970258 3.0958801803 3.1017633348 3.1076464892 
3.1076464892 3.1017633348 3.0958801803 3.0899970258 3.0841138714 3.0841138714 3.0841138714 3.0899970258 3.0899970258 
3.0899970258 3.0899970258 3.0958801803 3.1017633348 3.1076464892 3.1076464892 3.1017633348 3.0958801803 3.0899970258 
3.0841138714 3.0841138714 3.0841138714 3.0899970258 3.0899970258 3.0899970258 3.0958801803 3.1017633348 3.1076464892 
3.1076464892 3.1135296437 3.1135296437 3.1135296437 3.1135296437 3.1076464892 3.1017633348 3.0958801803 3.0899970258 
3.0841138714 3.0841138714 3.0899970258 3.0899970258 3.0899970258 3.0958801803 3.1017633348 3.1076464892 3.1135296437 
3.1135296437 3.1135296437 3.1135296437 3.1076464892 3.1076464892 3.1017633348 3.0958801803 3.0899970258 3.0841138714 
3.0841138714 3.0899970258 3.0899970258 3.0899970258 3.0899970258 3.0958801803 3.1017633348 3.1076464892 3.1135296437 
3.1135296437 3.1076464892 3.1017633348 3.0958801803 3.0958801803 3.0899970258 3.0841138714 3.0841138714 3.0841138714 
3.0899970258 3.0899970258 3.0899970258 3.0958801803 3.1017633348 3.1076464892 3.1076464892 3.1135296437 3.1135296437 
3.1135296437 3.1135296437 3.1076464892 3.1017633348 3.1017633348 3.0958801803 3.0899970258 3.0841138714 3.0841138714 
3.0841138714 3.0899970258 3.0899970258 3.0899970258 3.0899970258 3.0899970258 3.0958801803 3.1017633348 3.1076464892 
3.1135296437 3.1135296437 3.1135296437 3.1135296437 3.1135296437 3.1076464892 3.1017633348 3.0958801803 3.0899970258 
3.0841138714 3.0841138714 3.0899970258 3.0899970258 3.0899970258 3.0958801803 3.1017633348 3.1076464892 3.1076464892 
3.1135296437 3.1135296437 3.1076464892 3.1076464892 3.1017633348 3.0958801803 3.0899970258 3.0899970258 3.0841138714 
3.0841138714 3.0841138714 3.0899970258 3.0899970258 3.0899970258 3.0958801803 3.1017633348 3.1076464892 3.1135296437 
3.1135296437 3.1135296437 3.1076464892 3.1017633348 3.0958801803 3.0899970258 3.0841138714 3.0841138714 3.0899970258 
3.0899970258 3.0841138714 3.0841138714 3.0841138714 3.0841138714 3.0841138714 3.0841138714 3.0841138714 3.0899970258 
3.0958801803 3.1017633348 3.1076464892 3.1135296437 3.1135296437 3.1135296437 3.1076464892 3.1076464892 3.1017633348 
3.0958801803 3.0899970258 3.0841138714 3.0841138714 3.0841138714 3.0899970258 3.0899970258 3.0899970258 3.0841138714 
3.0841138714 3.0841138714 3.0841138714 3.0841138714 3.0841138714 3.0899970258 3.0899970258 3.0958801803 3.1017633348 
3.1076464892 3.1135296437 3.1135296437 3.1135296437 3.1076464892 3.1017633348 3.1017633348 3.0958801803 3.0899970258 
3.0841138714 3.0841138714 3.0841138714 3.0899970258 3.0899970258 3.0841138714 3.0841138714 3.0841138714 3.0841138714 
3.0899970258 3.0958801803 3.1017633348 3.1017633348 3.1076464892 3.1135296437 3.1135296437 3.1076464892 3.1017633348 
3.0958801803 3.0899970258 3.0841138714 3.0841138714 3.0899970258 3.0899970258 3.0899970258 3.0841138714 3.0841138714 
3.0841138714 3.0841138714 3.0899970258 3.0958801803 3.1017633348 3.1076464892 3.1135296437 3.1135296437 3.1135296437 
3.1076464892 3.1017633348 3.0958801803 3.0899970258 3.0841138714 3.0841138714 3.0899970258 3.0899970258 3.0841138714 
3.0841138714 3.0841138714 3.0841138714 3.0899970258 3.0958801803 3.1017633348 3.1076464892 3.1135296437 3.1194127981 
3.1194127981 3.1194127981 3.1194127981 3.1194127981 3.1135296437 3.1135296437 3.1076464892 3.1017633348 3.0958801803 
3.0899970258 3.0841138714 3.0841138714 3.0841138714 3.0841138714 3.0899970258 3.0899970258 3.0841138714 3.0841138714 
3.0841138714 3.0899970258 3.0899970258 3.0958801803 3.1017633348 3.1076464892 3.1135296437 3.1194127981 3.1194127981 
3.1194127981 3.1194127981 3.1135296437 3.1076464892 3.1076464892 3.1017633348 3.0958801803 3.0899970258 3.0841138714 
3.0841138714 3.0899970258 3.0899970258 3.0899970258 3.0841138714 3.0841138714 3.0841138714 3.0841138714 3.0899970258 
3.0958801803 3.1017633348 3.1076464892 3.1135296437 3.1135296437 3.1194127981 3.1194127981 3.1194127981 3.1135296437 
3.1076464892 3.1017633348 3.0958801803 3.0899970258 3.0841138714 3.0841138714 3.0899970258 3.0899970258 3.0841138714 
3.0841138714 3.0841138714 3.0841138714 3.0899970258 3.0958801803 3.1017633348 3.1076464892 3.1076464892 3.1135296437 