# vtk DataFile Version 4.2
vtk output
ASCII
DATASET POLYDATA
POINTS 18731 float
-2738.32 -4250.24 0 -2749.34 -4233.32 0 -2738.27 -4250.32 0 
284.597 -4233.24 0 278.01 -4250.24 0 4942.33 -4250.12 0 
4921.99 -4233.12 0 5391.83 -4233.1 0 5391.11 -4250.1 0 
-2760.42 -4216.32 0 291.185 -4216.24 0 4920.88 -4232.19 0 
4901.66 -4216.12 0 5392.55 -4216.1 0 -2771.49 -4199.32 0 
295.761 -4204.43 0 297.773 -4199.24 0 4883.88 -4201.26 0 
4881.32 -4199.12 0 5393.26 -4199.1 0 -2775.32 -4193.44 0 
-2782.57 -4182.32 0 304.361 -4182.24 0 4860.98 -4182.11 0 
5393.98 -4182.1 0 -2793.64 -4165.32 0 310.948 -4165.24 0 
4846.89 -4170.33 0 4840.65 -4165.11 0 5394.7 -4165.1 0 
-2804.72 -4148.32 0 322.199 -4148.24 0 4820.31 -4148.11 0 
5395.42 -4148.1 0 -2812.32 -4136.65 0 -2815.79 -4131.32 0 
332.766 -4138.38 0 340.426 -4131.23 0 4809.89 -4139.4 0 
4799.98 -4131.11 0 5396.14 -4131.1 0 -2826.86 -4114.32 0 
358.652 -4114.23 0 4779.64 -4114.11 0 5396.85 -4114.1 0 
-2837.94 -4097.32 0 369.769 -4103.86 0 376.879 -4097.23 0 
4772.89 -4108.47 0 4759.3 -4097.11 0 5397.57 -4097.1 0 
-2849.01 -4080.32 0 395.106 -4080.23 0 4738.97 -4080.11 0 
5398.29 -4080.09 0 -2849.32 -4079.85 0 -2860.09 -4063.32 0 
406.772 -4069.35 0 413.332 -4063.23 0 4735.89 -4077.54 0 
4718.63 -4063.11 0 5399.01 -4063.09 0 -2871.16 -4046.32 0 
431.559 -4046.23 0 4698.89 -4046.61 0 4698.29 -4046.11 0 
5399.73 -4046.09 0 -2882.24 -4029.31 0 443.775 -4033.49 0 
444.665 -4029.23 0 4677.96 -4029.11 0 5400.44 -4029.09 0 
-2886.31 -4023.05 0 -2893.31 -4012.31 0 444.616 -4012.22 0 
4661.89 -4023.45 0 4643.55 -4012.11 0 5401.91 -4026.83 0 
5409.38 -4012.09 0 -2904.38 -3995.31 0 444.566 -3995.22 0 
4587.89 -3995.6 0 4586.67 -3995.11 0 4624.89 -4006.42 0 
5431.17 -3995.09 0 -2915.46 -3978.31 0 444.517 -3978.22 0 
4550.89 -3984.31 0 4530.35 -3978.11 0 5438.91 -3989.23 0 
5453.63 -3978.09 0 -2923.31 -3966.26 0 -2926.53 -3961.31 0 
444.468 -3961.22 0 4476.89 -3961.98 0 4474.02 -3961.11 0 
4513.89 -3973.14 0 5475.92 -3961.22 0 5476.09 -3961.08 0 
-2937.61 -3944.31 0 444.418 -3944.22 0 4439.89 -3950.81 0 
4417.7 -3944.11 0 5498.54 -3944.08 0 -2948.68 -3927.31 0 
444.369 -3927.22 0 4365.89 -3928.47 0 4361.38 -3927.11 0 
4402.89 -3939.64 0 5512.92 -3933.2 0 5521 -3927.08 0 
-2959.75 -3910.31 0 444.32 -3910.22 0 4328.89 -3917.31 0 
4305.06 -3910.11 0 5543.46 -3910.08 0 -2960.31 -3909.46 0 
-2970.83 -3893.31 0 444.271 -3893.22 0 4254.89 -3894.97 0 
4248.73 -3893.11 0 4291.89 -3906.14 0 5549.92 -3905.19 0 
5565.92 -3893.08 0 -2981.9 -3876.31 0 444.221 -3876.22 0 
4217.89 -3883.8 0 4192.41 -3876.11 0 5586.92 -3877.18 0 
5588.38 -3876.08 0 -2992.98 -3859.31 0 444.172 -3859.22 0 
4143.88 -3861.47 0 4136.09 -3859.12 0 4180.89 -3872.64 0 
5610.83 -3859.08 0 -2997.31 -3852.66 0 -3001.82 -3842.31 0 
444.123 -3842.21 0 4106.88 -3850.3 0 4079.77 -3842.12 0 
5623.93 -3849.17 0 5633.29 -3842.07 0 -3006.71 -3825.31 0 
444.073 -3825.21 0 4032.88 -3827.97 0 4023.44 -3825.12 0 
4069.88 -3839.13 0 5655.75 -3825.07 0 -3010.53 -3808.31 0 
444.024 -3808.21 0 3995.88 -3816.8 0 3967.12 -3808.12 0 
5660.93 -3821.15 0 5678.21 -3808.07 0 -3014.35 -3791.3 0 
443.975 -3791.21 0 3921.88 -3794.46 0 3910.8 -3791.12 0 
3958.88 -3805.63 0 5697.93 -3793.14 0 5700.67 -3791.07 0 
-3018.17 -3774.3 0 443.926 -3774.21 0 3884.88 -3783.29 0 
3854.48 -3774.12 0 5723.13 -3774.07 0 -3021.99 -3757.3 0 
443.876 -3757.21 0 3810.88 -3760.96 0 3798.15 -3757.12 0 
3847.88 -3772.13 0 5734.93 -3765.13 0 5745.58 -3757.07 0 
-3025.81 -3740.3 0 443.827 -3740.21 0 3625.88 -3747.58 0 
3608.62 -3740.12 0 3662.22 -3740.12 0 3773.88 -3749.79 0 
3741.83 -3740.12 0 5768.04 -3740.06 0 -3029.63 -3723.3 0 
443.778 -3723.21 0 443.793 -3728.36 0 3588.88 -3734.42 0 
3579.54 -3723.12 0 3662.88 -3739.98 0 3699.88 -3732.39 0 
3736.88 -3738.62 0 5771.94 -3737.11 0 5790.5 -3723.06 0 
-3033.45 -3706.3 0 443.728 -3706.21 0 3565.49 -3706.12 0 
5808.94 -3709.1 0 5812.96 -3706.06 0 -3034.3 -3702.5 0 
-3037.27 -3689.3 0 443.679 -3689.21 0 3551.88 -3689.66 0 
3551.44 -3689.12 0 5835.41 -3689.06 0 -3041.09 -3672.3 0 
443.63 -3672.2 0 3537.38 -3672.12 0 5845.94 -3681.09 0 
5857.87 -3672.06 0 -3044.91 -3655.3 0 443.581 -3655.2 0 
3523.33 -3655.12 0 5880.33 -3655.06 0 -3048.73 -3638.3 0 
443.531 -3638.2 0 3514.88 -3644.9 0 3509.28 -3638.12 0 
5882.94 -3653.08 0 5902.79 -3638.05 0 -3054.4 -3621.3 0 
443.482 -3621.2 0 3495.23 -3621.12 0 5919.95 -3625.07 0 
5925.25 -3621.05 0 -3061.54 -3604.29 0 443.433 -3604.2 0 
3481.18 -3604.12 0 5947.7 -3604.05 0 -3068.68 -3587.29 0 
443.384 -3587.2 0 3477.88 -3600.13 0 3467.12 -3587.12 0 
5956.95 -3597.05 0 5970.16 -3587.05 0 -3071.29 -3581.08 0 
-3075.83 -3570.29 0 443.334 -3570.2 0 3453.07 -3570.12 0 
5992.62 -3570.05 0 -3082.97 -3553.29 0 443.285 -3553.2 0 
3440.88 -3555.37 0 3439.02 -3553.12 0 5993.95 -3569.04 0 
6015.08 -3553.05 0 -3090.12 -3536.29 0 443.236 -3536.2 0 
3424.97 -3536.12 0 6030.95 -3541.03 0 6037.54 -3536.04 0 
-3097.26 -3519.29 0 443.186 -3519.2 0 3410.92 -3519.11 0 
6059.99 -3519.04 0 -3104.4 -3502.29 0 443.137 -3502.19 0 
3403.89 -3510.61 0 3396.86 -3502.11 0 6067.96 -3513.01 0 
6082.45 -3502.04 0 -3108.29 -3493.04 0 -3111.55 -3485.29 0 
443.088 -3485.19 0 3382.81 -3485.11 0 6104.91 -3485.04 0 
-3118.69 -3468.29 0 443.039 -3468.19 0 3368.76 -3468.11 0 
6104.96 -3485 0 6127.37 -3468.04 0 -3125.84 -3451.29 0 
442.989 -3451.19 0 3366.89 -3465.85 0 3354.71 -3451.11 0 
6141.96 -3456.99 0 6149.83 -3451.04 0 -3132.98 -3434.29 0 
442.94 -3434.19 0 3340.66 -3434.11 0 6172.28 -3434.04 0 
-3140.13 -3417.29 0 442.891 -3417.19 0 3329.89 -3421.08 0 
3326.61 -3417.11 0 6178.97 -3428.98 0 6194.74 -3417.03 0 
-3145.29 -3405.01 0 -3147.27 -3400.28 0 442.841 -3400.19 0 
3312.55 -3400.11 0 6215.97 -3400.97 0 6217.2 -3400.03 0 
-3154.41 -3383.28 0 442.792 -3383.19 0 3298.5 -3383.11 0 
6239.66 -3383.03 0 -3161.56 -3366.28 0 442.743 -3366.19 0 
3292.89 -3376.32 0 3284.45 -3366.11 0 6252.97 -3372.95 0 
6262.12 -3366.03 0 -3168.7 -3349.28 0 442.694 -3349.19 0 
3270.4 -3349.11 0 6284.57 -3349.03 0 -3175.84 -3332.28 0 
442.644 -3332.18 0 3256.35 -3332.11 0 6289.97 -3344.94 0 
6307.03 -3332.03 0 -3182.28 -3316.97 0 -3182.99 -3315.28 0 
442.595 -3315.18 0 3255.89 -3331.56 0 3242.29 -3315.11 0 
6326.98 -3316.93 0 6329.49 -3315.02 0 -3190.13 -3298.28 0 
442.546 -3298.18 0 3228.24 -3298.11 0 6351.95 -3298.02 0 
-3197.28 -3281.28 0 442.496 -3281.18 0 3218.89 -3286.8 0 
3214.19 -3281.11 0 6363.98 -3288.92 0 6374.41 -3281.02 0 
-3204.42 -3264.28 0 442.447 -3264.18 0 3200.14 -3264.11 0 
6396.86 -3264.02 0 -3211.57 -3247.28 0 442.398 -3247.18 0 
3186.09 -3247.1 0 6400.98 -3260.9 0 6419.32 -3247.02 0 
-3218.71 -3230.28 0 442.349 -3230.18 0 3181.9 -3242.03 0 
3172.04 -3230.1 0 6437.98 -3232.89 0 6441.78 -3230.02 0 
-3219.28 -3228.93 0 -3225.85 -3213.28 0 442.299 -3213.18 0 
3157.98 -3213.1 0 6464.24 -3213.01 0 -3233 -3196.28 0 
442.25 -3196.18 0 3144.9 -3197.27 0 3143.93 -3196.1 0 
6474.99 -3204.88 0 6486.7 -3196.01 0 -3240.14 -3179.27 0 
442.201 -3179.18 0 3129.88 -3179.1 0 6508.34 -3179.01 0 
-3247.29 -3162.27 0 442.152 -3162.17 0 3115.83 -3162.1 0 
6511.99 -3176.04 0 6528.64 -3162.01 0 -3254.43 -3145.27 0 
442.102 -3145.17 0 3107.9 -3152.51 0 3101.78 -3145.1 0 
6548.82 -3145.01 0 -3256.27 -3140.89 0 -3261.57 -3128.27 0 
442.053 -3128.17 0 3087.73 -3128.1 0 6548.99 -3144.86 0 
6569 -3128.01 0 -3268.72 -3111.27 0 442.004 -3111.17 0 
3073.67 -3111.1 0 6586 -3113.69 0 6589.19 -3111 0 
-3275.86 -3094.27 0 441.954 -3094.17 0 3070.9 -3107.74 0 
3059.62 -3094.1 0 6609.37 -3094 0 -3283.01 -3077.27 0 
441.905 -3077.17 0 3045.57 -3077.1 0 6623 -3082.52 0 
6629.55 -3077 0 -3290.15 -3060.27 0 441.856 -3060.17 0 
3033.9 -3062.98 0 3031.52 -3060.1 0 6649.73 -3060 0 
-3293.27 -3052.85 0 -3297.29 -3043.27 0 441.807 -3043.17 0 
3017.47 -3043.1 0 6660 -3051.35 0 6669.92 -3043 0 
-3304.44 -3026.27 0 441.764 -3026.17 0 3003.41 -3026.1 0 
6690.1 -3026 0 -3311.58 -3009.27 0 442.77 -3009.17 0 
2996.9 -3018.22 0 2989.36 -3009.1 0 6697 -3020.18 0 
6710.28 -3009 0 -3318.73 -2992.27 0 443.836 -2997.41 0 
444.311 -2992.16 0 2975.31 -2992.1 0 6730.46 -2991.99 0 
-3325.87 -2975.26 0 445.851 -2975.16 0 2961.26 -2975.09 0 
6734.01 -2989.01 0 6750.65 -2974.99 0 -3330.26 -2964.81 0 
-3333.01 -2958.26 0 447.391 -2958.16 0 2959.91 -2973.46 0 
2947.21 -2958.09 0 6770.83 -2957.99 0 -3340.16 -2941.26 0 
448.931 -2941.16 0 2933.16 -2941.09 0 6771.01 -2957.84 0 
6791.01 -2940.99 0 -3347.3 -2924.26 0 450.471 -2924.16 0 
2922.91 -2928.69 0 2919.1 -2924.09 0 6808.01 -2926.67 0 
6811.19 -2923.99 0 -3354.45 -2907.26 0 452.011 -2907.16 0 
2905.05 -2907.09 0 6831.38 -2906.99 0 -3361.59 -2890.26 0 
453.551 -2890.16 0 2891 -2890.09 0 6845.01 -2895.5 0 
6851.56 -2889.98 0 -3367.26 -2876.77 0 -3368.73 -2873.26 0 
455.091 -2873.16 0 2885.91 -2884.13 0 2880.41 -2873.09 0 
6871.74 -2872.98 0 -3375.88 -2856.26 0 456.632 -2856.16 0 
2883.76 -2856.09 0 6882.02 -2864.33 0 6891.92 -2855.98 0 
-3383.02 -2839.26 0 458.172 -2839.15 0 2885.91 -2845.63 0 
2887.25 -2839.09 0 6912.1 -2838.98 0 -3390.17 -2822.26 0 
459.712 -2822.15 0 2890.74 -2822.09 0 6919.02 -2833.15 0 
6932.29 -2821.98 0 -3397.31 -2805.26 0 461.252 -2805.15 0 
2894.23 -2805.09 0 6952.47 -2804.98 0 -3404.26 -2788.73 0 
-3404.45 -2788.26 0 462.792 -2788.15 0 2897.72 -2788.09 0 
6956.02 -2801.98 0 6972.65 -2787.98 0 -3411.6 -2771.26 0 
464.332 -2771.15 0 2901.21 -2771.08 0 6992.83 -2770.97 0 
-3418.74 -2754.25 0 465.872 -2754.15 0 2904.7 -2754.08 0 
6993.03 -2770.81 0 7013.02 -2753.97 0 -3425.89 -2737.25 0 
467.413 -2737.15 0 2908.19 -2737.08 0 7030.03 -2739.64 0 
7033.2 -2736.97 0 -3433.03 -2720.25 0 468.953 -2720.15 0 
1541.28 -2720.12 0 1553.88 -2724.38 0 1576.89 -2720.12 0 
2911.68 -2720.08 0 7053.38 -2719.97 0 -3440.17 -2703.25 0 
470.493 -2703.15 0 1490.99 -2703.12 0 1516.88 -2711.87 0 
1590.88 -2716.65 0 1617.55 -2703.12 0 2915.17 -2703.08 0 
7067.03 -2708.47 0 7073.46 -2702.97 0 -3441.25 -2700.69 0 
-3447.32 -2686.25 0 472.033 -2686.15 0 1440.7 -2686.12 0 
1442.88 -2686.86 0 1479.88 -2699.36 0 1627.89 -2697.87 0 
[...]
POINT_DATA 18731
SCALARS Pressure double
LOOKUP_TABLE default
3.0899970258 3.0899970258 3.0899970258 3.0899970258 3.0899970258 3.0899970258 3.0899970258 3.0899970258 3.0899970258 
3.0899970258 3.0899970258 3.0899970258 3.0899970258 3.0899970258 3.0899970258 3.0899970258 3.0899970258 3.0899970258 
3.0899970258 3.0899970258 3.0899970258 3.0899970258 3.0899970258 3.0899970258 3.0899970258 3.0899970258 3.0899970258 
3.0899970258 3.0899970258 3.0899970258 3.0899970258 3.0899970258 3.0899970258 3.0899970258 3.0899970258 3.0899970258 
3.0899970258 3.0899970258 3.0899970258 3.0899970258 3.0899970258 3.0899970258 3.0899970258 3.0899970258 3.0899970258 
3.0899970258 3.0899970258 3.0899970258 3.0899970258 3.0899970258 3.0899970258 3.0899970258 3.0899970258 3.0899970258 
3.0899970258 3.0899970258 3.0899970258 3.0899970258 3.0899970258 3.0899970258 3.0899970258 3.0899970258 3.0899970258 
3.0899970258 3.0899970258 3.0899970258 3.0899970258 3.0899970258 3.0899970258 3.0899970258 3.0899970258 3.0899970258 
3.0899970258 3.0899970258 3.0899970258 3.0899970258 3.0899970258 3.0899970258 3.0899970258 3.0899970258 3.0899970258 
3.0899970258 3.0899970258 3.0899970258 3.0899970258 3.0899970258 3.0899970258 3.0899970258 3.0899970258 3.0899970258 
3.0899970258 3.0899970258 3.0899970258 3.0899970258 3.0899970258 3.0899970258 3.0899970258 3.0899970258 3.0899970258 
3.0899970258 3.0899970258 3.0899970258 3.0899970258 3.0899970258 3.0899970258 3.0899970258 3.0899970258 3.0899970258 
3.0899970258 3.0899970258 3.0899970258 3.0899970258 3.0899970258 3.0899970258 3.0899970258 3.0899970258 3.0899970258 
3.0899970258 3.0899970258 3.0899970258 3.0899970258 3.0899970258 3.0899970258 3.0899970258 3.0899970258 3.0899970258 
3.0899970258 3.0899970258 3.0899970258 3.0899970258 3.0899970258 3.0899970258 3.0899970258 3.0899970258 3.0899970258 
3.0899970258 3.0899970258 3.0899970258 3.0899970258 3.0899970258 3.0899970258 3.0899970258 3.0899970258 3.0899970258 
3.0899970258 3.0899970258 3.0899970258 3.0899970258 3.0899970258 3.0899970258 3.0899970258 3.0899970258 3.0899970258 
3.0899970258 3.0899970258 3.0899970258 3.0899970258 3.0899970258 3.0899970258 3.0899970258 3.0899970258 3.0899970258 
3.0899970258 3.0899970258 3.0899970258 3.0899970258 3.0899970258 3.0899970258 3.0899970258 3.0899970258 3.0899970258 
3.0899970258 3.0899970258 3.0899970258 3.0899970258 3.0899970258 3.0899970258 3.0899970258 3.0899970258 3.0899970258 
3.0899970258 3.0899970258 3.0899970258 3.0899970258 3.0899970258 3.0899970258 3.0899970258 3.0899970258 3.0899970258 
3.0899970258 3.0899970258 3.0899970258 3.0899970258 3.0899970258 3.0899970258 3.0899970258 3.0899970258 3.0899970258 
3.0899970258 3.0899970258 3.0899970258 3.0899970258 3.0899970258 3.0899970258 3.0899970258 3.0899970258 3.0899970258 
3.0899970258 3.0899970258 3.0899970258 3.0899970258 3.0899970258 3.0899970258 3.0899970258 3.0899970258 3.0899970258 
3.0899970258 3.0899970258 3.0899970258 3.0899970258 3.0899970258 3.0899970258 3.0899970258 3.0899970258 3.0899970258 
3.0899970258 3.0899970258 3.0899970258 3.0899970258 3.0899970258 3.0899970258 3.0899970258 3.0899970258 3.0899970258 
3.0899970258 3.0899970258 3.0899970258 3.0899970258 3.0899970258 3.0899970258 3.0899970258 3.0899970258 3.0899970258 
3.0899970258 3.0899970258 3.0899970258 3.0899970258 3.0899970258 3.0899970258 3.0899970258 3.0899970258 3.0899970258 
3.0899970258 3.0899970258 3.0899970258 3.0899970258 3.0899970258 3.0899970258 3.0899970258 3.0899970258 3.0899970258 
3.0899970258 3.0899970258 3.0899970258 3.0899970258 3.0899970258 3.0899970258 3.0899970258 3.0899970258 3.0899970258 
3.0899970258 3.0899970258 3.0899970258 3.0899970258 3.0899970258 3.0899970258 3.0899970258 3.0899970258 3.0899970258 
3.0899970258 3.0899970258 3.0899970258 3.0899970258 3.0899970258 3.0899970258 3.0899970258 3.0899970258 3.0899970258 
3.0899970258 3.0899970258 3.0899970258 3.0899970258 3.0899970258 3.0899970258 3.0899970258 3.0899970258 3.0899970258 
3.0899970258 3.0899970258 3.0899970258 3.0899970258 3.0899970258 3.0899970258 3.0899970258 3.0899970258 3.0899970258 
3.0899970258 3.0899970258 3.0899970258 3.0899970258 3.0899970258 3.0899970258 3.0899970258 3.0899970258 3.0899970258 
3.0899970258 3.0899970258 3.0899970258 3.0899970258 3.0899970258 3.0899970258 3.0899970258 3.0899970258 3.0899970258 
3.0899970258 3.0899970258 3.0899970258 3.0899970258 3.0899970258 3.0899970258 3.0899970258 3.0899970258 3.0899970258 
3.0899970258 3.0899970258 3.0899970258 3.0899970258 3.0899970258 3.0899970258 3.0899970258 3.0899970258 3.0899970258 
3.0899970258 3.0899970258 3.0899970258 3.0899970258 3.0899970258 3.0899970258 3.0899970258 3.0899970258 3.0899970258 
3.0899970258 3.0899970258 3.0899970258 3.0899970258 3.0899970258 3.0899970258 3.0899970258 3.0899970258 3.0899970258 
3.0899970258 3.0899970258 3.0899970258 3.0899970258 3.0899970258 3.0899970258 3.0899970258 3.0899970258 3.0899970258 
3.0899970258 3.0899970258 3.0899970258 3.0899970258 3.0899970258 3.0899970258 3.0899970258 3.0899970258 3.0899970258 
3.0899970258 3.0899970258 3.0899970258 3.0899970258 3.0899970258 3.0899970258 3.0899970258 3.0899970258 3.0899970258 
3.0899970258 3.0899970258 3.0899970258 3.0899970258 3.0899970258 3.0899970258 3.0899970258 3.0899970258 3.0899970258 
3.0899970258 3.0899970258 3.0899970258 3.0899970258 3.0899970258 3.0899970258 3.0899970258 3.0899970258 3.0899970258 
3.0899970258 3.0899970258 3.0899970258 3.0899970258 3.0899970258 3.0899970258 3.0899970258 3.0899970258 3.0899970258 
3.0899970258 3.0899970258 3.0899970258 3.0899970258 3.0899970258 3.0899970258 3.0899970258 3.0899970258 3.0899970258 
3.0899970258 3.0899970258 3.0899970258 3.0899970258 3.0899970258 3.0899970258 3.0899970258 3.0899970258 3.0899970258 
3.0899970258 3.0899970258 3.0899970258 3.0899970258 3.0899970258 3.0899970258 3.0899970258 3.0899970258 3.0899970258 
3.0899970258 3.0899970258 3.0899970258 3.0899970258 3.0899970258 3.0899970258 3.0899970258 3.0899970258 3.0899970258 
3.0899970258 3.0899970258 3.0899970258 3.0899970258 3.0899970258 3.0899970258 3.0899970258 3.0899970258 3.0899970258 
3.0899970258 3.0899970258 3.0899970258 3.0899970258 3.0899970258 3.0899970258 3.0899970258 3.0899970258 3.0899970258 
3.0899970258 3.0899970258 3.0899970258 3.0899970258 3.0899970258 3.0899970258 3.0899970258 3.0899970258 3.0899970258 
3.0899970258 3.0899970258 3.0899970258 3.0899970258 3.0899970258 3.0899970258 3.0899970258 3.0899970258 3.0899970258 
3.0899970258 3.0899970258 3.0899970258 3.0899970258 3.0899970258 3.0899970258 3.0958801803 3.0958801803 3.0958801803 
3.0899970258 3.0899970258 3.0899970258 3.0899970258 3.0958801803 3.0958801803 3.0958801803 3.0958801803 3.0899970258 
3.0899970258 3.0899970258 3.0899970258 3.0899970258 3.0899970258 3.0958801803 3.0958801803 3.0958801803 3.0958801803 
3.0958801803 3.0899970258 3.0899970258 3.0899970258 3.0899970258 3.0958801803 3.0958801803 3.0958801803 3.0958801803 
3.0899970258 3.0899970258 3.0899970258 3.0899970258 3.0899970258 3.0958801803 3.0958801803 3.0958801803 3.0958801803 
3.0899970258 3.0899970258 3.0899970258 3.0899970258 3.0899970258 3.0958801803 3.0958801803 3.0958801803 3.0958801803 
3.0958801803 3.0899970258 3.0899970258 3.0899970258 3.0899970258 3.0899970258 3.0958801803 3.0958801803 3.0958801803 
3.0958801803 3.0899970258 3.0899970258 3.0899970258 3.0899970258 3.0899970258 3.0958801803 3.0958801803 3.0958801803 
3.0958801803 3.0899970258 3.0899970258 3.0899970258 3.0899970258 3.0899970258 3.0899970258 3.0958801803 3.0958801803 
3.0958801803 3.0958801803 3.0958801803 3.0958801803 3.0899970258 3.0899970258 3.0899970258 3.0899970258 3.0958801803 
3.0958801803 3.0958801803 3.0958801803 3.0958801803 3.0958801803 3.0899970258 3.0899970258 3.0899970258 3.0899970258 
3.0899970258 3.0958801803 3.0958801803 3.0958801803 3.0958801803 3.0899970258 3.0899970258 3.0899970258 3.0899970258 
3.0958801803 3.0958801803 3.0958801803 3.0899970258 3.0899970258 3.0899970258 3.0899970258 3.0899970258 3.0899970258 
3.0958801803 3.0958801803 3.0899970258 3.0899970258 3.0899970258 3.0899970258 3.0899970258 3.0958801803 3.0958801803 
3.0958801803 3.0899970258 3.0899970258 3.0899970258 3.0899970258 3.0958801803 3.0958801803 3.0958801803 3.0899970258 
3.0899970258 3.0899970258 3.0899970258 3.0899970258 3.0899970258 3.0958801803 3.0958801803 3.0958801803 3.0958801803 
3.0899970258 3.0899970258 3.0899970258 3.0899970258 3.0958801803 3.0958801803 3.0899970258 3.0899970258 3.0899970258 
3.0899970258 3.0899970258 3.0899970258 3.0958801803 3.0958801803 3.0899970258 3.0899970258 3.0899970258 3.0899970258 
3.0958801803 3.0958801803 3.0899970258 3.0899970258 3.0899970258 3.0899970258 3.0899970258 3.0958801803 3.0958801803 
3.0899970258 3.0899970258 3.0899970258 3.0899970258 3.0958801803 3.0958801803 3.0899970258 3.0899970258 3.0899970258 
3.0899970258 3.0899970258 3.0958801803 3.0958801803 3.0958801803 3.0899970258 3.0899970258 3.0899970258 3.0899970258 
3.0899970258 3.0958801803 3.0958801803 3.0899970258 3.0899970258 3.0899970258 3.0899970258 3.0899970258 3.0899970258 
3.0958801803 3.0958801803 3.0899970258 3.0899970258 3.0899970258 3.0899970258 3.0958801803 3.0958801803 3.0899970258 
3.0899970258 3.0899970258 3.0899970258 3.0899970258 3.0958801803 3.0958801803 3.0958801803 3.0899970258 3.0899970258 
3.0899970258 3.0899970258 3.0958801803 3.0958801803 3.0958801803 3.0899970258 3.0899970258 3.0899970258 3.0899970258 
3.0899970258 3.0958801803 3.0958801803 3.0899970258 3.0899970258 3.0899970258 3.0899970258 3.0899970258 3.0899970258 
3.0958801803 3.0958801803 3.0899970258 3.0899970258 3.0899970258 3.0899970258 3.0899970258 3.0958801803 3.0958801803 
3.0958801803 3.0899970258 3.0899970258 3.0899970258 3.0899970258 3.0899970258 3.0958801803 3.0958801803 3.0899970258 
3.0899970258 3.0899970258 3.0841138714 3.0841138714 3.0841138714 3.0841138714 3.0899970258 3.0958801803 3.0958801803 
3.0899970258 3.0899970258 3.0899970258 3.0899970258 3.0841138714 3.0841138714 3.0841138714 3.0841138714 3.0841138714 
3.0841138714 3.0899970258 3.0958801803 3.0958801803 3.0958801803 3.0958801803 3.0899970258 3.0899970258 3.0899970258 
3.0841138714 3.0841138714 3.0841138714 3.0841138714 3.0841138714 3.0899970258 3.0958801803 3.0958801803 3.0899970258 
3.0899970258 3.0899970258 3.0899970258 3.0899970258 3.0841138714 3.0841138714 3.0841138714 3.0841138714 3.0841138714 
3.0841138714 3.0899970258 3.0958801803 3.0958801803 3.0899970258 3.0899970258 3.0899970258 3.0841138714 3.0841138714 
3.0841138714 3.0841138714 3.0841138714 3.0899970258 3.0958801803 3.0958801803 3.0958801803 3.0899970258 3.0899970258 
3.0899970258 3.0899970258 3.0899970258 3.0841138714 3.0841138714 3.0841138714 3.0841138714 3.0841138714 3.0899970258 
3.0958801803 3.0958801803 3.0899970258 3.0899970258 3.0899970258 3.0841138714 3.0841138714 3.0841138714 3.0841138714 
3.0841138714 3.0899970258 3.0958801803 3.0958801803 3.0899970258 3.0899970258 3.0899970258 3.0899970258 3.0841138714 
3.0841138714 3.0841138714 3.0899970258 3.0958801803 3.0958801803 3.0899970258 3.0899970258 3.0899970258 3.0841138714 
3.0841138714 3.0841138714 3.0841138714 3.0899970258 3.0958801803 3.0958801803 3.0958801803 3.0958801803 3.0899970258 
3.0899970258 3.0899970258 3.0899970258 3.0841138714 3.0841138714 3.0899970258 3.0958801803 3.1017633348 3.1017633348 
3.1017633348 3.1017633348 3.1017633348 3.1017633348 3.1017633348 3.0958801803 3.0899970258 3.0899970258 3.0899970258 
3.0841138714 3.0841138714 3.0899970258 3.0958801803 3.1017633348 3.1017633348 3.1017633348 3.1017633348 3.1017633348 
3.1017633348 3.0958801803 3.0899970258 3.0899970258 3.0899970258 3.0899970258 3.0899970258 3.0841138714 3.0841138714 
3.0841138714 3.0899970258 3.0958801803 3.1017633348 3.1017633348 3.1017633348 3.1017633348 3.1017633348 3.1017633348 
3.1017633348 3.0958801803 3.0958801803 3.0899970258 3.0899970258 3.0899970258 3.0899970258 3.0841138714 3.0841138714 
3.0841138714 3.0899970258 3.0958801803 3.1017633348 3.1017633348 3.1017633348 3.1017633348 3.0958801803 3.0899970258 
3.0899970258 3.0899970258 3.0841138714 3.0841138714 3.0841138714 3.0899970258 3.0958801803 3.1017633348 3.1017633348 
3.0958801803 3.0899970258 3.0899970258 3.0899970258 3.0899970258 3.0841138714 3.0841138714 3.0899970258 3.0899970258 
3.0958801803 3.1017633348 3.1017633348 3.1017633348 3.1017633348 3.0958801803 3.0958801803 3.0899970258 3.0899970258 
3.0899970258 3.0841138714 3.0841138714 3.0841138714 3.0899970258 3.0958801803 3.1017633348 3.1017633348 3.1017633348 
3.0958801803 3.0899970258 3.0899970258 3.0899970258 3.0899970258 3.0841138714 3.0841138714 3.0841138714 3.0899970258 
3.0958801803 3.1017633348 3.1017633348 3.1017633348 3.0958801803 3.0899970258 3.0899970258 3.0899970258 3.0841138714 
3.0841138714 3.0899970258 3.0958801803 3.1017633348 3.1017633348 3.1017633348 3.1017633348 3.0958801803 3.0899970258 
3.0899970258 3.0899970258 3.0899970258 3.0841138714 3.0841138714 3.0841138714 3.0899970258 3.0958801803 3.1017633348 
3.1017633348 3.0958801803 3.0899970258 3.0899970258 3.0899970258 3.0841138714 3.0841138714 3.0841138714 3.0899970258 
3.0958801803 3.1017633348 3.1017633348 3.1017633348 3.0958801803 3.0899970258 3.0899970258 3.0899970258 3.0899970258 
3.0841138714 3.0841138714 3.0841138714 3.0899970258 3.0958801803 3.1017633348 3.1017633348 3.1017633348 3.0958801803 
3.0899970258 3.0899970258 3.0899970258 3.0841138714 3.0841138714 3.0899970258 3.0958801803 3.1017633348 3.1017633348 
3.0958801803 3.0899970258 3.0899970258 3.0899970258 3.0899970258 3.0841138714 3.0841138714 3.0899970258 3.0958801803 
3.0958801803 3.1017633348 3.1017633348 3.0958801803 3.0899970258 3.0899970258 3.0899970258 3.0899970258 3.0841138714 
3.0841138714 3.0841138714 3.0841138714 3.0899970258 3.0958801803 3.1017633348 3.1017633348 3.1017633348 3.1017633348 
3.0958801803 3.0899970258 3.0899970258 3.0899970258 3.0841138714 3.0841138714 3.0899970258 3.0958801803 3.1017633348 
3.1017633348 3.0958801803 3.0899970258 3.0899970258 3.0899970258 3.0899970258 3.0841138714 3.0841138714 3.0841138714 
3.0899970258 3.0958801803 3.1017633348 3.1017633348 3.0958801803 3.0899970258 3.0899970258 3.0899970258 3.0841138714 
3.0841138714 3.0899970258 3.0958801803 3.1017633348 3.1017633348 3.1017633348 3.0958801803 3.0899970258 3.0899970258 
3.0899970258 3.0841138714 3.0841138714 3.0841138714 3.0899970258 3.0958801803 3.1017633348 3.1017633348 3.1017633348 
3.0958801803 3.0899970258 3.0899970258 3.0899970258 3.0899970258 3.0841138714 3.0841138714 3.0841138714 3.0899970258 
3.0958801803 3.1017633348 3.1017633348 3.0958801803 3.0899970258 3.0899970258 3.0899970258 3.0841138714 3.0841138714 
3.0899970258 3.0958801803 3.0958801803 3.1017633348 3.1017633348 3.0958801803 3.0899970258 3.0899970258 3.0899970258 
3.0841138714 3.0841138714 3.0841138714 3.0841138714 3.0899970258 3.0958801803 3.1017633348 3.1017633348 3.0958801803 
3.0899970258 3.0899970258 3.0899970258 3.0841138714 3.0841138714 3.0899970258 3.0958801803 3.1017633348 3.1017633348 
3.1017633348 3.0958801803 3.0899970258 3.0899970258 3.0899970258 3.0841138714 3.0841138714 3.0899970258 3.0958801803 
3.1017633348 3.1017633348 3.1017633348 3.0958801803 3.0899970258 3.0899970258 3.0899970258 3.0841138714 3.0841138714 
3.0841138714 3.0899970258 3.0958801803 3.1017633348 3.1017633348 3.0958801803 3.0899970258 3.0899970258 3.0899970258 
3.0899970258 3.0841138714 3.0841138714 3.0841138714 3.0899970258 3.0958801803 3.0958801803 3.1017633348 3.1076464892 
3.1076464892 3.1076464892 3.1076464892 3.1076464892 3.1076464892 3.1017633348 3.0958801803 3.0899970258 3.0899970258 
3.0899970258 3.0841138714 3.0841138714 3.0841138714 3.0899970258 3.0958801803 3.1017633348 3.1076464892 3.1076464892 
3.1076464892 3.1076464892 3.1076464892 3.1076464892 3.1076464892 3.1076464892 3.1017633348 3.0958801803 3.0899970258 
3.0899970258 3.0899970258 3.0841138714 3.0841138714 3.0899970258 3.0958801803 3.1017633348 3.1076464892 3.1076464892 
3.1076464892 3.1017633348 3.0958801803 3.0899970258 3.0899970258 3.0899970258 3.0841138714 3.0841138714 3.0841138714 
3.0899970258 3.0958801803 3.1017633348 3.1017633348 3.1076464892 3.1076464892 3.1076464892 3.1017633348 3.0958801803 
3.0899970258 3.0899970258 3.0899970258 3.0899970258 3.0841138714 3.0841138714 3.0899970258 3.0958801803 3.1017633348 
3.1076464892 3.1076464892 3.1076464892 3.1017633348 3.1017633348 3.0958801803 3.0899970258 3.0899970258 3.0899970258 
3.0899970258 3.0841138714 3.0841138714 3.0841138714 3.0899970258 3.0899970258 3.0958801803 3.1017633348 3.1076464892 
3.1076464892 3.1076464892 3.1017633348 3.0958801803 3.0899970258 3.0899970258 3.0899970258 3.0841138714 3.0841138714 
3.0899970258 3.0958801803 3.1017633348 3.1076464892 3.1076464892 3.1076464892 3.1017633348 3.0958801803 3.0899970258 
3.0899970258 3.0899970258 3.0841138714 3.0841138714 3.0899970258 3.0958801803 3.1017633348 3.1076464892 3.1076464892 
3.1076464892 3.1017633348 3.0958801803 3.0899970258 3.0899970258 3.0899970258 3.0899970258 3.0841138714 3.0782307169 
3.0782307169 3.0782307169 3.0841138714 3.0899970258 3.0958801803 3.1017633348 3.1017633348 3.1076464892 3.1076464892 
3.1076464892 3.1017633348 3.0958801803 3.0899970258 3.0899970258 3.0899970258 3.0841138714 3.0841138714 3.0782307169 
3.0782307169 3.0782307169 3.0782307169 3.0782307169 3.0841138714 3.0841138714 3.0899970258 3.0899970258 3.0958801803 
3.1017633348 3.1076464892 3.1076464892 3.1076464892 3.1017633348 3.0958801803 3.0899970258 3.0841138714 3.0841138714 
3.0841138714 3.0899970258 3.0899970258 3.0841138714 3.0782307169 3.0782307169 3.0782307169 3.0782307169 3.0841138714 
3.0899970258 3.0958801803 3.0958801803 3.1017633348 3.1076464892 3.1076464892 3.1076464892 3.1017633348 3.0958801803 
3.0899970258 3.0841138714 3.0841138714 3.0841138714 3.0899970258 3.0899970258 3.0899970258 3.0841138714 3.0782307169 
3.0782307169 3.0782307169 3.0782307169 3.0841138714 3.0899970258 3.0958801803 3.1017633348 3.1076464892 3.1076464892 
3.1076464892 3.1017633348 3.1017633348 3.0958801803 3.0899970258 3.0841138714 3.0841138714 3.0841138714 3.0899970258 
3.0899970258 3.0841138714 3.0782307169 3.0782307169 3.0782307169 3.0782307169 3.0782307169 3.0841138714 3.0899970258 
3.0958801803 3.1017633348 3.1017633348 3.1076464892 3.1076464892 3.1076464892 3.1017633348 3.0958801803 3.0899970258 
3.0841138714 3.0841138714 3.0841138714 3.0841138714 3.0841138714 3.0899970258 3.0899970258 3.0841138714 3.0782307169 
3.0782307169 3.0782307169 3.0782307169 3.0782307169 3.0782307169 3.0782307169 3.0782307169 3.0841138714 3.0899970258 
3.0958801803 3.1017633348 3.1076464892 3.1076464892 3.1017633348 3.0958801803 3.0899970258 3.0841138714 3.0841138714 
3.0841138714 3.0899970258 3.0899970258 3.0841138714 3.0782307169 3.0782307169 3.0841138714 3.0899970258 3.0958801803 
3.1017633348 3.1076464892 3.1076464892 3.1076464892 3.1017633348 3.0958801803 3.0899970258 3.0899970258 3.0841138714 
3.0841138714 3.0841138714 3.0841138714 3.0899970258 3.0899970258 3.0841138714 3.0782307169 3.0782307169 3.0782307169 
3.0841138714 3.0899970258 3.0958801803 3.1017633348 3.1076464892 3.1076464892 3.1076464892 3.1017633348 3.0958801803 
3.0899970258 3.0841138714 3.0841138714 3.0841138714 3.0841138714 3.0899970258 3.0899970258 3.0899970258 3.0841138714 
3.0782307169 3.0782307169 3.0782307169 3.0841138714 3.0899970258 3.0958801803 3.1017633348 3.1017633348 3.1076464892 
3.1076464892 3.1017633348 3.0958801803 3.0899970258 3.0841138714 3.0841138714 3.0841138714 3.0841138714 3.0841138714 
3.0899970258 3.0899970258 3.0841138714 3.0841138714 3.0782307169 3.0782307169 3.0841138714 3.0899970258 3.0958801803 
3.1017633348 3.1076464892 3.1076464892 3.1076464892 3.1017633348 3.0958801803 3.0899970258 3.0841138714 3.0841138714 
3.0841138714 3.0841138714 3.0899970258 3.0899970258 3.0841138714 3.0782307169 3.0782307169 3.0782307169 3.0841138714 
3.0899970258 3.0958801803 3.1017633348 3.1076464892 3.1076464892 3.1135296437 3.1135296437 3.1135296437 3.1135296437 