# vtk DataFile Version 4.2
vtk output
ASCII
DATASET UNSTRUCTURED_GRID
POINTS 1740 double
2144.07 -94.44003 0 2911 0 0 16.54298 -37.82236 0 
5.09149 -21.30132 0 1.27433 -10.75385 0 0 0 0 
2.54575 15.14293 0 6.36291 23.76126 0 14.00014 34.89063 0 
30.50239 50.70793 0 33.39435 -52.93479 0 2050.91 -103.7862 0 
60.1465 -69.72165 0 88.83633 -83.2817 0 118.7656 -94.71113 0 
153.4168 -105.7022 0 199.5806 -117.771 0 261.4466 -130.7139 0 
345.846 -144.1892 0 460.3522 -157.0592 0 608.4185 -167.1903 0 
783.2313 -172.4016 0 941.0559 -172.4533 0 1063.409 -170.1096 0 
1164.153 -166.8746 0 1263.449 -162.682 0 1375.468 -156.8941 0 
1513.293 -148.414 0 1665.281 -137.5317 0 1791.864 -127.3721 0 
2195.451 -89.09491 0 2273.924 -80.67077 0 2383.731 -68.3513 0 
2517.64 -52.47337 0 2649.227 -35.9232 0 2740.773 -23.82991 0 
2804.387 -15.13419 0 2848.802 -8.916218 0 2881.944 -4.196067 0 
56.61447 67.79801 0 84.09687 81.25172 0 112.4783 92.48395 0 
142.1748 102.3504 0 174.8563 111.6168 0 213.124 120.8806 0 
260.3759 130.5151 0 324.6539 141.1779 0 418.1422 152.9178 0 
535.6656 162.9871 0 690.9154 170.4255 0 902.6513 172.7852 0 
1100.32 169.0517 0 1270.99 162.3262 0 1462.794 151.6837 0 
1631.287 140.0952 0 1747.993 131 0 1922.788 115.9027 0 
2069.56 101.951 0 2128.804 96.0021 0 2297.147 78.11721 0 
2414.379 64.80104 0 2554.023 47.99319 0 2673.693 32.73885 0 
2757.97 21.50315 0 2814.297 13.7575 0 2852.02 8.460961 0 
2882.272 4.148909 0 1791.052 127.4402 0 1366.894 157.3738 0 
1444.38 -152.8302 0 1547.039 146.1296 0 1589.287 -143.1614 0 
1878.731 119.8675 0 1997.072 108.9828 0 1185.654 166.0472 0 
1882.536 -119.5292 0 1971.323 -111.4145 0 1684.777 136.0292 0 
2099.317 -98.9855 0 2234.809 84.9091 0 2181.695 90.53914 0 
1728.573 -132.5703 0 1718.815 133.3509 0 1834.825 123.7132 0 
1960.305 112.4444 0 2033.69 105.4648 0 2099.184 98.99892 0 
2214.291 -73.300077621 396.8421 2955.512 17.241677897 396.8421 158.0786 -29.385152151 396.8421 
147.0109 -13.565255599 396.8421 143.3217 -3.44330826 396.8421 142.09 6.8931334395 396.8421 
144.5505 21.475419501 396.8421 148.2398 29.789390399 396.8421 155.621 40.54255089 396.8421 
171.5701 55.860110314 396.8421 174.3652 -43.815503552 396.8421 2124.254 -82.465516435 396.8421 
200.2206 -59.792951416 396.8421 227.9488 -72.653138881 396.8421 256.8748 -83.455167631 396.8421 
290.3647 -93.804523983 396.8421 334.981 -105.11558422 396.8421 394.7733 -117.16550369 396.8421 
476.3434 -129.58235437 396.8421 587.0114 -141.22732324 396.8421 730.1145 -150.03774299 396.8421 
899.0676 -153.98056355 396.8421 1051.602 -153.10627552 396.8421 1169.853 -150.16923413 396.8421 
1267.221 -146.52073765 396.8421 1363.188 -141.98373721 396.8421 1471.452 -135.8798019 396.8421 
1604.657 -127.11437568 396.8421 1751.55 -116.04833172 396.8421 1873.891 -105.84115347 396.8421 
2263.949 -68.079403482 396.8421 2339.792 -59.880145914 396.8421 2445.918 -47.948147447 396.8421 
2575.338 -32.662424462 396.8421 2702.515 -16.828882117 396.8421 2790.992 -5.3168349168 396.8421 
2852.473 2.9334168807 396.8421 2895.4 8.8195577741 396.8421 2927.431 13.280754281 396.8421 
196.807 72.461681554 396.8421 223.3682 85.573957356 396.8421 250.7983 96.555254439 396.8421 
279.4994 106.23127044 396.8421 311.0855 115.349233 396.8421 348.0705 124.50019708 396.8421 
393.7383 134.06502407 396.8421 455.8617 144.72731421 396.8421 546.2162 156.61151288 396.8421 
659.8003 167.04080412 396.8421 809.846 175.17150803 396.8421 1014.485 178.74046888 396.8421 
1205.528 176.305076 396.8421 1370.477 170.76951413 396.8421 1555.851 161.4888318 396.8421 
1718.696 151.08238972 396.8421 1831.49 142.78345779 396.8421 2000.426 128.8248692 396.8421 
2142.278 115.76452618 396.8421 2199.537 110.15574244 396.8421 2362.236 93.166868597 396.8421 
2475.539 80.40710526 396.8421 2610.501 64.182345158 396.8421 2726.16 49.353775859 396.8421 
2807.613 38.374712258 396.8421 2862.05 30.779928786 396.8421 2898.509 25.574957832 396.8421 
2927.749 21.330767776 396.8421 1873.106 139.51087238 396.8421 1463.165 166.49764981 396.8421 
1538.054 -131.65913639 396.8421 1637.272 156.52929984 396.8421 1678.104 -121.75273489 396.8421 
1957.846 132.50982216 396.8421 2072.22 122.36445331 396.8421 1288 173.89047699 396.8421 
1961.524 -98.024180481 396.8421 2047.334 -89.984271404 396.8421 1770.393 147.38435014 396.8421 
2171.038 -77.751636401 396.8421 2301.989 99.639694748 396.8421 2250.655 104.98589746 396.8421 
1812.721 -111.05102319 396.8421 1803.29 144.93752606 396.8421 1915.411 136.07151819 396.8421 
2036.686 125.60056062 396.8421 2107.61 119.06671138 396.8421 2170.909 112.9840563 396.8421 
2284.511 -53.64710089 793.6842 3000.027 33.251502874 793.6842 299.6143 -19.740512766 793.6842 
288.9304 -4.5826030588 793.6842 285.3691 5.1354355636 793.6842 284.1801 15.074061291 793.6842 
286.5551 29.119309069 793.6842 290.1167 37.140224772 793.6842 297.2417 47.529240105 793.6842 
312.6379 62.359023741 793.6842 315.336 -33.531047849 793.6842 2197.597 -62.590524141 793.6842 
340.2947 -48.754806888 793.6842 367.0612 -60.968408109 793.6842 394.9839 -71.195032853 793.6842 
427.3123 -80.960271791 793.6842 470.3812 -91.58796212 793.6842 528.0998 -102.842114 793.6842 
606.8411 -114.33094588 793.6842 713.6708 -124.92615163 793.6842 851.8104 -132.64055084 793.6842 
1014.904 -135.57678084 793.6842 1162.147 -134.00771321 793.6842 1276.298 -130.65107467 793.6842 
1370.288 -126.72748157 793.6842 1462.927 -121.97732225 793.6842 1567.436 -115.6985947 793.6842 
1696.021 -106.8090136 793.6842 1837.82 -95.718468499 793.6842 1955.917 -85.578948169 793.6842 
2332.447 -48.56803196 793.6842 2405.659 -40.611691051 793.6842 2508.105 -29.074887513 793.6842 
2633.037 -14.360950389 793.6842 2755.801 0.81075632159 793.6842 2841.209 11.801492986 793.6842 
2900.561 19.659061792 793.6842 2941.997 25.255912173 793.6842 2972.917 29.492978255 793.6842 
336.9995 78.476848019 793.6842 362.6396 91.244267767 793.6842 389.1182 101.96562729 793.6842 
416.8239 111.43771457 793.6842 447.3145 120.38848885 793.6842 483.0167 129.40040779 793.6842 
527.1009 138.85783678 793.6842 587.0697 149.46041678 793.6842 674.2905 161.38932272 793.6842 
783.9349 172.03473521 793.6842 928.7766 180.64254234 793.6842 1126.317 185.09611048 793.6842 
1310.735 183.63873374 793.6842 1469.963 179.01511308 793.6842 1648.908 170.79386562 793.6842 
1806.105 161.32266324 793.6842 1914.987 153.66345857 793.6842 2078.064 140.63821875 793.6842 
2214.996 128.32927263 793.6842 2270.269 123.01366565 793.6842 2427.326 106.82137871 793.6842 
2536.699 94.581336659 793.6842 2666.98 78.934732872 793.6842 2778.628 64.564045755 793.6842 
2857.255 53.8857295 793.6842 2909.806 46.481705165 793.6842 2945.001 41.399849264 793.6842 
2973.224 37.2516841 793.6842 1955.16 150.62393042 793.6842 1559.437 175.27051019 793.6842 
1631.729 -111.40352083 793.6842 1727.505 166.30277257 793.6842 1766.921 -101.42059979 793.6842 
2036.96 144.09132153 793.6842 2147.368 134.56226073 793.6842 1390.347 181.67458243 793.6842 
2040.511 -77.859328931 793.6842 2123.346 -69.954547923 793.6842 1856.009 157.91908289 793.6842 
2242.759 -57.986443344 793.6842 2369.167 113.00581539 793.6842 2319.614 118.10007947 793.6842 
1896.869 -90.745097781 793.6842 1887.765 155.6585992 793.6842 1995.998 147.41960268 793.6842 
2113.066 137.6091583 793.6842 2181.531 131.45097402 793.6842 2242.634 125.69617542 793.6842 
2354.732 -35.438638045 1190.526 3044.539 48.00442267 1190.526 441.15 -9.3804029401 1190.526 
430.8497 5.1476749873 1190.526 427.4164 14.479131246 1190.526 426.2701 24.035274675 1190.526 
428.5601 37.561225051 1190.526 431.9934 45.297087147 1190.526 438.8627 55.329940758 1190.526 
453.7057 69.678216772 1190.526 456.3069 -22.566670185 1190.526 2270.94 -44.129500537 1190.526 
480.3688 -37.084159038 1190.526 506.1737 -48.696850671 1190.526 533.0934 -58.392818707 1190.526 
564.26 -67.623561694 1190.526 605.7815 -77.631710311 1190.526 661.4265 -88.173048286 1190.526 
737.3385 -98.844493186 1190.526 840.33 -108.53652632 1190.526 973.5064 -115.34030285 1190.526 
1130.74 -117.48264243 1190.526 1272.693 -115.4032465 1190.526 1382.742 -111.76419219 1190.526 
1473.356 -107.67390464 1190.526 1562.666 -102.81268364 1190.526 1663.42 -96.467830334 1190.526 
1787.385 -87.577721359 1190.526 1924.09 -76.583644466 1190.526 2037.944 -66.598754317 1190.526 
2400.946 -30.513758044 1190.526 2471.527 -22.81355577 1190.526 2570.292 -11.677344109 1190.526 
2690.735 2.4802099388 1190.526 2809.091 17.030511222 1190.526 2891.43 27.543967022 1190.526 
2948.647 35.047515023 1190.526 2988.597 40.386087159 1190.526 3018.403 44.424434554 1190.526 
477.1918 85.311493887 1190.526 501.9109 97.726793498 1190.526 527.4382 108.17673672 1190.526 
554.1485 117.42978982 1190.526 583.5435 126.19396466 1190.526 617.963 135.04136083 1190.526 
660.4633 144.35616753 1190.526 718.2775 154.84575252 1190.526 802.3645 166.73289552 1190.526 
908.0698 177.47342411 1190.526 1047.707 186.38269951 1190.526 1238.151 191.46290389 1190.526 
1415.942 190.73420668 1190.526 1569.449 186.80869873 1190.526 1741.965 179.41670745 1190.526 
1893.514 170.69364779 1190.526 1998.484 163.55603233 1190.526 2155.702 151.30920701 1190.526 
2287.714 139.64575232 1190.526 2341.001 134.58770237 1190.526 2492.415 119.11568826 1190.526 
2597.858 107.36605022 1190.526 2723.46 92.290698982 1190.526 2831.095 78.398258427 1190.526 
2906.899 68.050575431 1190.526 2957.56 60.864815588 1190.526 2991.49 55.927938621 1190.526 
3018.699 51.895371015 1190.526 2037.214 160.7088751 1190.526 1655.708 183.47449165 1190.526 
1725.403 -92.16164518 1190.526 1817.738 175.2983408 1190.526 1855.738 -82.225156686 1190.526 
2116.075 154.56686017 1190.526 2222.516 145.5611166 1190.526 1492.694 189.11302497 1190.526 
2119.498 -59.030115355 1190.526 2199.357 -51.305312829 1190.526 1941.625 167.52897288 1190.526 
2314.479 -39.652309689 1190.526 2436.346 125.03553557 1190.526 2388.573 129.90236706 1190.526 
1981.017 -71.679229885 1190.526 1972.24 165.42067726 1190.526 2076.584 157.69969843 1190.526 
[...]
POINT_DATA 1740
FIELD FieldData 1
Pressure 1 1740 double
3.1043776068 3.0182879377 3.0096915884 2.9857549555 2.9789575776 2.9589779157 2.9720902211 2.9892854195 3.0205415951 
3.0346502295 3.0123858777 3.1083743461 3.0347463484 3.0494108426 3.0667009776 3.067329177 3.0840823743 3.0889573681 
3.110772684 3.1154440694 3.1347022937 3.1435406568 3.1454268612 3.152112505 3.145822918 3.1417525402 3.1374621134 
3.1328621596 3.1256387531 3.1195118445 3.1018091501 3.0984426886 3.0930080568 3.0849099683 3.0741110024 3.064118592 
3.0542997808 3.0455990192 3.0373372985 3.0703514924 3.0817288566 3.0938220237 3.106391739 3.1125904508 3.1190364358 
3.1260707384 3.1339519717 3.1493730048 3.1618533124 3.1774982353 3.1877421585 3.194607364 3.200245255 3.2056740808 
3.2098359799 3.2131433521 3.2137689973 3.1071238309 3.0990125689 3.0869447978 3.0807042978 3.0716744426 3.0617009566 
3.051119925 3.0406967071 3.0332001813 3.031508617 3.2128241639 3.2035197995 3.1358313705 3.2074694405 3.1289676107 
3.213457128 3.2153451406 3.2017086487 3.1158590317 3.1119919457 3.211330001 3.1062030422 3.0909357369 3.0932056923 
3.1220098387 3.2128251328 3.2127786474 3.213658685 3.2292046985 3.0962186533 3.1012003496 3.0236062555 3.0279406934 
3.0011427206 3.0072099613 2.9858830501 2.992020244 3.0037958401 3.0335437985 3.0514583062 3.0373000703 3.1054954398 
3.0575527631 3.0703572623 3.0833954965 3.087172663 3.103015807 3.1123471085 3.1260172818 3.1310472113 3.1422600722 
3.1464512421 3.1500970083 3.1512332293 3.145118994 3.1400191886 3.1337455999 3.1289848347 3.1222033415 3.116574888 
3.0988745709 3.0947744177 3.089299831 3.0811301118 3.0704276609 3.0605241333 3.0508647675 3.0434078372 3.0284399862 
3.0842492677 3.1051720973 3.1165499355 3.1254774798 3.1343133532 3.1397793786 3.1448366396 3.1542101794 3.1664074358 
3.1756794575 3.1840688893 3.1916038014 3.1982330756 3.2043771762 3.2069434972 3.2098436492 3.2135000728 3.2155434883 
3.0988011265 3.0992532392 3.0923626085 3.0862020717 3.0775726031 3.0663614407 3.0558248753 3.0456923983 3.0391093663 
3.0394047713 3.2138301709 3.2058676261 3.1321321379 3.2099508006 3.1252149324 3.2149906163 3.2155660569 3.2034751289 
3.1127467943 3.1089296288 3.2118094 3.1034489747 3.0956450815 3.0983325616 3.1191309368 3.2126295452 3.2134859522 
3.2151844392 3.1174640393 3.1003179937 3.0986550389 3.0242341996 3.0278134091 2.9999846973 3.0003323131 2.9833980973 
2.9941200028 3.0085447678 3.0381163481 3.0587938384 3.0462120455 3.1028583825 3.0611296916 3.0801420402 3.0980138977 
3.1036612 3.1176522856 3.1255129641 3.1387464509 3.1444882369 3.1526746051 3.1552429447 3.1542462676 3.1523508649 
3.1440233911 3.1374429677 3.131061635 3.125499334 3.1192790174 3.1140064655 3.0963718657 3.0924350823 3.0868193329 
3.0789968668 3.0681792217 3.0582592179 3.049222841 3.0421739329 3.0285516754 3.09128318 3.1127834962 3.1298206363 
3.1400024957 3.1522883506 3.1599732711 3.1690312532 3.173399281 3.181710857 3.1915289682 3.1957683909 3.200889816 
3.2041230176 3.2108124818 3.2127298397 3.2134545716 3.2158415333 3.219488015 3.0971075185 3.0969818234 3.0940846773 
3.0884260591 3.0801471068 3.0689204835 3.0586965345 3.0485102343 3.0413997664 3.0422823681 3.2161933747 3.2119516228 
3.128902121 3.2137795985 3.1221042735 3.2171483116 3.1014551267 3.208551757 3.1101788208 3.1063282852 3.2142690497 
3.1009387968 3.0965539079 3.0975558198 3.1163983038 3.2148239935 3.2164295384 3.2143847575 3.0938954347 3.0971143229 
3.096602032 3.0242603803 3.0283077851 2.9995439555 3.0000275858 2.9818529757 2.9912662377 3.0061063261 3.0388359442 
3.0594903675 3.0469999819 3.1007110135 3.067019588 3.0849200049 3.1050003052 3.1128875443 3.1260047493 3.1333825057 
3.1465653544 3.1530066428 3.1601149533 3.1606538542 3.1576085043 3.1526160007 3.1428528164 3.1360213392 3.1294632362 
3.1233607257 3.1170631518 3.1116128724 3.0940831584 3.0904388119 3.0851084806 3.0774475405 3.0669788156 3.0572300803 
3.0486713115 3.0416443629 3.029037522 3.094198993 3.1177476921 3.1320170253 3.1442973078 3.1509120039 3.1622293697 
3.1745704437 3.1819109901 3.1900656506 3.2015326483 3.2065479626 3.210462501 3.2122130319 3.2185652695 3.2201234855 
3.220323071 3.2217960066 3.2228846322 3.0954536035 3.0963296139 3.0931603391 3.087568827 3.0791156034 3.0684784282 
3.0585621457 3.0486550803 3.0411901091 3.042497586 3.2217592712 3.2192757998 3.1270292825 3.2209177561 3.1200803504 
3.2222595273 3.0892713702 3.2159588863 3.1078775276 3.1041039239 3.2207940377 3.098701162 3.0952274453 3.0961919087 
3.1141268037 3.2209234528 3.2219900549 3.1120770978 3.0941576183 3.0959961042 3.094802571 3.023408481 3.0300672757 
2.9999250397 3.0024738822 2.9848171679 2.9923603846 3.0066899351 3.0400575335 3.0600359125 3.0492237863 3.0989486502 
3.0711670726 3.0888318978 3.1067826654 3.1159789218 3.1293755986 3.1394112578 3.150335298 3.1573366451 3.1648292083 
3.1640081206 3.158649363 3.1511449089 3.1410517623 3.1339869136 3.1275233234 3.1212762996 3.1151749671 3.1096535168 
3.0926291007 3.088857974 3.0837180824 3.0761933722 3.0660422917 3.0565472572 3.0482763463 3.0411510225 3.0296021812 
3.0946203055 3.1186253152 3.1327300164 3.1455830492 3.154723453 3.1658045719 3.1766221553 3.1820120483 3.1927244624 
3.2057006902 3.2143780937 3.2176273031 3.2199369308 3.225616595 3.2271344993 3.2271058297 3.2283255654 3.1142220667 
3.0929191957 3.0931436785 3.0903811025 3.0847133728 3.0763244091 3.0661609748 3.0564407653 3.0468525636 3.0394558719 
3.0410339572 3.2284514751 3.2265658074 3.125026853 3.2275728692 3.1181648908 3.2287446872 3.0906944158 3.2234310655 
3.105943023 3.1022803384 3.2275331078 3.0969382173 3.0925478909 3.092739249 3.1122200021 3.2277385402 3.2284713779 
3.0903768978 3.0920976513 3.0934046956 3.0934277621 3.0227723322 3.0308494085 3.0010652695 3.0027730997 2.9854694003 
2.9933718479 3.0075555102 3.0406685758 3.0608869268 3.0515610513 3.0973390776 3.0737350679 3.0922178384 3.1089281691 
3.1185565531 3.1322013443 3.1427431578 3.1546951129 3.1627931665 3.1689221827 3.1667551342 3.1590310076 3.1489236127 
3.1391464293 3.1321462301 3.1258186946 3.1194677403 3.1134478792 3.1079310285 3.091166717 3.087450606 3.0824792843 
3.0750627637 3.0651421805 3.0557579464 3.047686346 3.0405137506 3.0299184156 3.0948386658 3.1192184177 3.1333501148 
3.1463087676 3.1552994051 3.1669740434 3.1790549035 3.1855647784 3.1965450563 3.2096839176 3.2199600806 3.2249909041 
3.2274211353 3.2335006526 3.2346993144 3.2340282065 3.234856645 3.0855554577 3.0913403331 3.0905247446 3.0880001438 
3.082842012 3.074956014 3.0648640745 3.0551454464 3.045948014 3.0384570395 3.0401450101 3.2349945964 3.2341711234 
3.1232170499 3.2345944916 3.1163851593 3.2456538978 3.0904265881 3.2308966872 3.1042855899 3.1006975665 3.2341944521 
3.0953152836 3.0900197928 3.0902357258 3.1105377117 3.2343768465 3.2354388287 3.0903676536 3.0909019416 3.0909697193 
3.0921796417 3.0228786444 3.03083933 3.0014117942 3.0015691997 2.9849326765 2.9935043715 3.0075809703 3.0403430396 
3.0609659945 3.0529410403 3.0960935156 3.0751556782 3.0944346944 3.1109194659 3.1209091848 3.1347199846 3.1459097119 
3.1578274651 3.1663374585 3.1724331863 3.1689105635 3.1586517192 3.1464880297 3.1373171626 3.1305988334 3.1243370303 
3.1181091073 3.1120919547 3.1066343537 3.0899240735 3.0862798216 3.0814241185 3.0741277671 3.0643722081 3.0550217804 
3.0470827584 3.0398749742 3.0299063788 3.0944789882 3.1191241988 3.1332451132 3.1462092765 3.1556984503 3.1674088804 
3.1794979859 3.1867990983 3.1981407638 3.2123378854 3.2236149036 3.2302831777 3.2342247715 3.2408907126 3.2422800007 
3.2419067784 3.2419546743 3.0863167655 3.0919462391 3.0907969479 3.0884458389 3.0834862805 3.0759232698 3.0656772578 
3.0559465278 3.0467925014 3.0392179576 3.0409392896 3.2420358079 3.2420796043 3.1219099684 3.2424435559 3.1149966277 
3.2380100238 3.0889047669 3.2380303962 3.1030092883 3.099477032 3.241565318 3.0939507121 3.0902838999 3.090962332 
3.1091731733 3.2416256847 3.2424816999 3.0912907219 3.0907513229 3.0920390557 3.0913486275 3.0232689902 3.031019482 
3.0020525755 3.0013881836 2.9848125754 2.9935670481 3.0074959186 3.0401753523 3.0605985894 3.0535697837 3.0952505869 
3.0760821242 3.095833858 3.1122266937 3.1225615261 3.1365374459 3.1483044881 3.1601125009 3.1689271046 3.1751736671 
3.1703588008 3.1575614895 3.1447298133 3.1360890832 3.1295522649 3.123352239 3.1168776815 3.1111219562 3.1057116578 
3.0890952736 3.0855270804 3.0807087553 3.0735068323 3.0638550203 3.0544958631 3.0466392165 3.0393880065 3.029911003 
3.0937962437 3.118673491 3.1327721964 3.1457543279 3.1553444358 3.1671680076 3.1793179127 3.1873811687 3.1990850247 
3.2136517896 3.2258507202 3.2342318779 3.2394717088 3.2471443498 3.2494499479 3.249191317 3.2492990347 3.0902990285 
3.0926879868 3.0918085483 3.0891667808 3.084446196 3.0770795779 3.0667489186 3.0572068861 3.0480344758 3.0403218672 
3.042258855 3.2496420139 3.2489467223 3.1207185341 3.2494485336 3.1139415235 3.2343098346 3.0904310041 3.2436968346 
3.1021162834 3.0986756595 3.2490474438 3.0931928699 3.0910134149 3.0917068504 3.1082609983 3.248993679 3.2501276796 
3.0954213877 3.0923362972 3.0930872832 3.0908639422 3.0231413132 3.0316111853 3.0026347559 3.001421892 2.9847722159 
2.993867963 3.0076219372 3.0401895548 3.0601192564 3.0541490731 3.0946442891 3.0768535598 3.0968585171 3.1131395594 
3.1237334603 3.1378931437 3.1501522875 3.1619012052 3.1707920485 3.1775006841 3.1716035783 3.1566390872 3.1437119804 
3.1355511795 3.1290553688 3.1230313802 3.1165807255 3.1108212568 3.1053419127 3.0886844518 3.085226901 3.0804243161 
3.0732786661 3.063673722 3.0542442328 3.0464336868 3.039094517 3.0300707374 3.0932358408 3.1182173945 3.1322387218 
3.145272104 3.1550396626 3.1668382553 3.1790069752 3.1875028826 3.1996769482 3.2145146342 3.2272701382 3.2369439281 
3.243223327 3.2518064497 3.2554171353 3.2555956986 3.2563943495 3.0912816105 3.0924159907 3.091196144 3.0883257713 
3.0837019573 3.0765583841 3.0663871755 3.0570564762 3.0480194191 3.0401477854 3.042478842 3.2564815036 3.2540123017 
3.1203707065 3.2559411004 3.1136333111 3.2376479313 3.0912949084 3.247907309 3.1017076983 3.0983191562 3.2556615135 
3.0926239693 3.0902308696 3.0908686726 3.1079254469 3.2557294935 3.2571552464 3.0993024495 3.092584807 3.092358483 
3.0907833747 3.0222040411 3.0319716634 3.0030887363 3.0015987761 2.984832505 2.9942833059 3.0078790126 3.0402445399 
3.0600374151 3.0545277908 3.0946449395 3.0774137541 3.0975778941 3.1137471216 3.124627199 3.1389176457 3.1516048585 
3.1632945198 3.1722152312 3.179534635 3.1729140687 3.1565889893 3.1434611099 3.1359638842 3.1294419309 3.123365656 
3.11694468 3.110837836 3.1053629553 3.0887685757 3.0852994411 3.0804906326 3.0733373781 3.0637508667 3.0541354364 
3.0463552759 3.0389492593 3.0303671495 3.093114316 3.1180086572 3.1319708068 3.1450254061 3.1549604533 3.1667678889 
3.1789132483 3.1877642816 3.2003546891 3.2152756203 3.2284299511 3.2387529114 3.2457481969 3.2551325772 3.2593062699 
3.260659922 3.2615540658 3.0903204019 3.0901772121 3.0897520537 3.0860731848 3.0813007672 3.0740864843 3.0641318402 
3.0549397464 3.0461170804 3.0382169258 3.040796271 3.2619246461 3.2577392721 3.120736688 3.2604570677 3.1138683435 
3.2530954796 3.0910357064 3.2507580979 3.101784812 3.0983871029 3.261010977 3.0925127682 3.0880562065 3.0887540746 
3.1079330552 3.2610870282 3.262826728 3.0985437967 3.0905323312 3.0906241122 3.0911177157 3.0208430742 3.0323014397 
3.0035765766 3.001957378 2.9849817914 2.9948182098 3.0082490755 3.0403691532 3.0602727844 3.0547471068 3.0950706599 
3.0778010484 3.0982395099 3.1143350341 3.1255209926 3.139622318 3.1526543896 3.1643223723 3.1732603422 3.1813555835 
3.1743468187 3.157208152 3.1437636838 3.1365800529 3.1301211738 3.123970104 3.117275242 3.1112602501 3.1056895616 
3.0890898374 3.0855511856 3.0807297034 3.073529688 3.0639449056 3.0542005783 3.0463988561 3.0389578277 3.030501438 
3.0933746546 3.1179780034 3.1320036918 3.1451349865 3.155173918 3.167074124 3.1791705335 3.1883253755 3.2012521571 
3.2160861929 3.2295376055 3.2402017815 3.2475292166 3.2575042501 3.2621296128 3.2641098222 3.2654549059 3.0809007493 
3.0852223609 3.0851219966 3.0817492034 3.0769412022 3.0697707437 3.060202121 3.0511948623 3.042616075 3.0349380437 
3.0374974391 3.2660623261 3.2603499605 3.1211023387 3.2636298794 3.1142052465 3.2754015506 3.084649098 3.2526937018 
3.1020585025 3.0986287496 3.2646731525 3.0928432942 3.0835076925 3.083723863 3.1083345754 3.2649261619 3.2668843388 
3.0857558131 3.0846574133 3.085250372 3.091505528 3.0194748233 3.0325895693 3.0039354403 3.0024754034 2.9851880065 
2.9952779844 3.008600674 3.0405563326 3.0608312492 3.0548645066 3.0954286513 3.0780653234 3.0981938718 3.1141406075 
3.1255946667 3.1398572257 3.1532247978 3.1648184224 3.1742228743 3.1829353971 3.1758152814 3.15806563 3.1441404996 
3.1372467719 3.1307668695 3.1245557453 3.1177623755 3.1117310222 3.1061951261 3.0894649357 3.085860119 3.0810333577 
3.0737628731 3.064165163 3.0543779178 3.0465311719 3.0390392282 3.0304967178 3.0939575023 3.1182111512 3.1325085573 
3.1457811092 3.1558435176 3.1678108457 3.1797721628 3.1892209644 3.202326924 3.2169902658 3.2306706507 3.2415235838 
3.2489441105 3.2591153868 3.2641427386 3.266452439 3.2681116337 3.0797025839 3.0791387062 3.0787188828 3.0765144578 
3.0719931955 3.065030542 3.0558466678 3.0470197983 3.0387701866 3.0315318576 3.0337683526 3.2688513551 3.2622595857 
3.1216611783 3.2657355905 3.1146686373 3.2805655067 3.0793284416 3.2541331126 3.1025469155 3.0989052326 3.2671261688 
3.0932697472 3.0781980621 3.0781937472 3.108795449 3.2675092138 3.2696910547 3.0778073502 3.0790114807 3.0788481472 
3.0920544501 3.0189562566 3.032888007 3.0042279783 3.003166542 2.9855089218 2.9956160239 3.0089518802 3.0408331651 
3.0616792881 3.0548514818 3.0960814779 3.0779455578 3.0980618093 3.1137630409 3.1254969853 3.1397279788 3.1531768941 
3.1651596001 3.1740808489 3.1840466764 3.1771781727 3.159153396 3.1447742257 3.1379733845 3.1314193184 3.1251800074 
3.1181644722 3.1122596355 3.1067420933 3.0899788135 3.0862953318 3.0814165843 3.0740714164 3.0644056595 3.0545595769 
3.0466593301 3.0391315428 3.0304889673 3.0943907675 3.118589382 3.1334694718 3.1469038917 3.1570411149 3.1689650124 
3.180827689 3.1904607332 3.2036753089 3.2180978762 3.2319247817 3.2429354169 3.2502651257 3.2603871497 3.2657953628 
3.2682568736 3.2699503117 3.077375981 3.0758923091 3.0754313897 3.0730566492 3.0688437418 3.0621816186 3.0532095819 
3.0444683612 3.0365413405 3.0296113842 3.0317892992 3.2707034077 3.2637516596 3.1221952663 3.2674273549 3.1151506936 
3.2829616953 3.0761861838 3.2553840561 3.1030687538 3.0995522783 3.2689497358 3.0938603147 3.0746419009 3.0749992675 
3.1093351907 3.2693144626 3.271933316 3.0744104535 3.0757702568 3.0756018621 3.0927362286 3.0195513144 3.0332920936 
3.004664137 3.004138233 2.9861153306 2.9960454582 3.0094305871 3.0413495578 3.0627712028 3.0543293919 3.0967787919 
3.0773357962 3.0973848139 3.1129744598 3.1250667419 3.1390359978 3.1528946928 3.1647428123 3.1752251641 3.184475826 
3.1784339549 3.1605435745 3.1455310059 3.1387117942 3.1320364831 3.1259064504 3.1185722382 3.1128644088 3.1073615016 
3.0905991672 3.0868585412 3.0819077106 3.0744773701 3.0647025826 3.0547919057 3.0468022906 3.0392822705 3.030145226 
3.0949796085 3.119403199 3.1346553733 3.1483116613 3.158556911 3.1703807357 3.1822783543 3.1921219625 3.2054247905 
3.2194821395 3.2333988293 3.2444556378 3.2516755114 3.2616288753 3.267220853 3.2697623422 3.2714566421 3.0695978549 
3.0751547475 3.0748130104 3.0728645922 3.0689478876 3.0626368499 3.0536254222 3.0449122951 3.0371880374 3.0304042663 
3.0322957147 3.272638091 3.2650883534 3.1227314839 3.2688758004 3.1156837459 3.2812340396 3.0742474647 3.2566359154 
3.1036814627 3.1002032725 3.2704633096 3.0945767954 3.0744352959 3.0749216405 3.1099960102 3.270853002 3.2735312485 
3.0717756052 3.0743950155 3.0750813389 3.0934889365 3.0206984528 3.0337233578 3.005120341 3.0066135539 2.9872502332 
2.9966259824 3.0101164579 3.0419693644 3.064265432 3.0535883869 3.0975620224 3.0762130347 3.0960762331 3.1116147541 
3.1239762612 3.1377802261 3.1517153952 3.164181774 3.1744181679 3.1849151448 3.179875149 3.1625233216 3.1465733473 
3.1395621407 3.1327714896 3.1266939253 3.1194042446 3.1137707051 3.1081963082 3.0912643538 3.0875249309 3.0824695153 
3.0749851305 3.0650562909 3.0550860639 3.0469778408 3.039453049 3.029384233 3.0957987993 3.1205304484 3.1362372935 
3.1500597078 3.1603929659 3.1720571361 3.183991968 3.194135723 3.2074346823 3.2211566487 3.2349793436 3.2463960516 
3.2534084196 3.2631146403 3.2693031474 3.2722241205 3.2737692694 3.0754676689 3.0768528337 3.0765951887 3.075466998 
3.0715984752 3.0652974574 3.0561857452 3.0475816742 3.0397196955 3.0328965024 3.0347076853 3.2752761202 3.2666721659 
3.1235814754 3.2709696325 3.1165014512 3.2374799969 3.0753004843 3.25813778 3.1043283054 3.1008692084 3.2725697877 
3.0953791886 3.0768038348 3.0769037749 3.1109351158 3.2730864413 3.295907432 3.0746743086 3.075766204 3.07710502 
3.0942562251 3.0216014869 3.0334385307 3.0047561529 3.0094319971 2.9877920941 2.9969926072 3.0105934865 3.0419786554 
3.0656720858 3.051805004 3.098426422 3.0735850974 3.093494047 3.109282219 3.1221387265 3.1356348912 3.1491230556 
3.162892183 3.1729456367 3.1848875631 3.1814204572 3.1654421306 3.1489413364 3.141000428 3.1339114243 3.1281179712 
3.1206589132 3.1147013624 3.1092740522 3.0919777046 3.088258206 3.0830578417 3.0754726949 3.0653526233 3.0553178238 
3.0470847733 3.039456776 3.0281887462 3.0964842343 3.1216811217 3.1380551208 3.1520391093 3.1625357974 3.1741715864 
3.1859768208 3.1964660648 3.2098971232 3.2233623225 3.2376933634 3.2487538684 3.255919325 3.2657158195 3.2731741803 
3.2753327558 3.2764497792 3.0733710141 3.0794450514 3.0788971221 3.078200809 3.0741973548 3.0676912433 3.0586944179 
3.050386593 3.0423189334 3.0353727484 3.0375190408 3.279694467 3.2696626905 3.1248212683 3.2744718117 3.1176590427 
3.0547715108 3.0773247828 3.2603901635 3.1053248306 3.1017051985 3.275685408 3.0962608085 3.0794147913 3.079258423 
3.1121246492 3.2758696867 3.2139404913 3.0753462057 3.0779185501 3.0794487775 3.0948962259 3.0217468029 3.0302890649 
3.003073633 3.0072256117 2.9855890313 2.9962253621 3.010556276 3.0435407952 3.0668480208 3.0483983713 3.0986711341 
3.0703880838 3.0901234681 3.1066260681 3.1188577322 3.1324806819 3.1451077224 3.1618785228 3.1730576559 3.1864023662 
3.1847785073 3.1700542719 3.1530675007 3.1433835096 3.1357995376 3.1292925703 3.1220164013 3.1161822546 3.1106950368 
3.0928215921 3.0890222345 3.0837510837 3.076145391 3.0657704301 3.055457114 3.0469510098 3.0392080955 3.0263120762 
3.0992528012 3.1235784279 3.141196609 3.1555901914 3.1660696805 3.1774702771 3.1889054108 3.2002368028 3.2142052724 
3.2278401987 3.2425121094 3.2567511073 3.2610430301 3.2700401601 3.2757291008 3.2751819968 3.281105615 3.0825331411 
3.0818238043 3.0816317396 3.0808817779 3.0761131825 3.0698726216 3.0604497204 3.0523324629 3.0440432209 3.0369634107 
3.0396552135 3.2314529005 3.2735270015 3.1259048495 3.2759987153 3.1185242019 3.0881127558 3.0811590205 3.2648249196 
3.1060442403 3.1020958991 3.2758193902 3.0968803126 3.0819700929 3.0827403241 3.1137196551 3.2746689108 3.0675539317 
3.0816358689 3.0802579206 3.0822007119 3.095761629 3.023905979 3.033130124 3.0049730447 3.0078058331 2.9876892242 
3.0010433504 3.0152892604 3.0518345067 3.0714668792 3.0491650835 3.0999583904 3.0660507393 3.0871737992 3.1037342547 
3.1185395442 3.1312656906 3.1455550981 3.1656760457 3.1861282381 3.1908551573 3.1879943252 3.1728966223 3.1539702478 
3.1436107769 3.1357687855 3.129589828 3.1206530781 3.1146231644 3.1094231822 3.0934459011 3.0906150146 3.0849230808 
3.0760321536 3.0665014884 3.0554387852 3.0464456208 3.0379593206 3.0246558053 3.1018968053 3.1265780758 3.149508687 
3.1632885194 3.1728475582 3.1872072779 3.1965907549 3.2072917742 3.2249718829 3.2364304977 3.2534349389 3.2631204499 