# vtk DataFile Version 4.2
vtk output
ASCII
DATASET POLYDATA
POINTS 16436 float
-4691.08 -3250.41 5800 -4691.16 -3237.41 5800 1206.11 -3237.21 5800 
1210.27 -3250.21 5800 3649.08 -3250.12 5800 3644.87 -3237.12 5800 
-4691.25 -3224.41 5800 1204.88 -3224.21 5800 3640.66 -3224.12 5800 
-4691.34 -3211.41 5800 1207.18 -3211.21 5800 3638.36 -3211.12 5800 
-4691.43 -3198.41 5800 1212.3 -3198.2 5800 3638.26 -3198.12 5800 
-4691.51 -3185.41 5800 1217.41 -3185.2 5800 3639.49 -3185.12 5800 
-4691.6 -3172.41 5800 1217.8 -3184.22 5800 1222.52 -3172.2 5800 
3641.76 -3172.12 5800 -4691.69 -3159.4 5800 1227.64 -3159.2 5800 
3644.02 -3159.12 5800 -4691.78 -3146.4 5800 1232.75 -3146.2 5800 
3646.29 -3146.12 5800 -4691.86 -3133.4 5800 1237.87 -3133.2 5800 
3648.55 -3133.12 5800 -4691.95 -3120.4 5800 1242.98 -3120.2 5800 
3650.82 -3120.11 5800 -4692.04 -3107.4 5800 1246.8 -3110.48 5800 
1248.09 -3107.2 5800 3653.08 -3107.11 5800 -4692.13 -3094.4 5800 
1253.21 -3094.19 5800 3653.89 -3102.49 5800 3655.35 -3094.11 5800 
-4692.21 -3081.4 5800 1258.32 -3081.19 5800 3657.61 -3081.11 5800 
-4692.3 -3068.4 5800 1263.44 -3068.19 5800 3659.88 -3068.11 5800 
-4692.39 -3055.4 5800 1268.55 -3055.19 5800 3662.14 -3055.11 5800 
-4692.48 -3042.4 5800 1273.67 -3042.19 5800 3664.4 -3042.11 5800 
-4692.56 -3029.39 5800 1275.81 -3036.74 5800 1278.78 -3029.19 5800 
3666.67 -3029.11 5800 -4692.65 -3016.39 5800 1283.89 -3016.19 5800 
3668.93 -3016.11 5800 -4692.74 -3003.39 5800 1289.01 -3003.19 5800 
3671.2 -3003.1 5800 -4692.82 -2990.39 5800 1294.12 -2990.19 5800 
3673.46 -2990.1 5800 -4692.91 -2977.39 5800 1299.24 -2977.18 5800 
3675.73 -2977.1 5800 -4693 -2964.39 5800 1304.35 -2964.18 5800 
3677.99 -2964.1 5800 -4693.09 -2951.39 5800 1304.82 -2963 5800 
1309.47 -2951.18 5800 3680.26 -2951.1 5800 -4693.17 -2938.39 5800 
1314.58 -2938.18 5800 3682.52 -2938.1 5800 -4693.26 -2925.39 5800 
1319.69 -2925.18 5800 3682.9 -2935.91 5800 3684.78 -2925.1 5800 
-4693.35 -2912.39 5800 1324.81 -2912.18 5800 3687.05 -2912.1 5800 
-4693.44 -2899.38 5800 1329.92 -2899.18 5800 3689.31 -2899.1 5800 
-4693.52 -2886.38 5800 1333.82 -2889.26 5800 1335.04 -2886.18 5800 
3691.58 -2886.09 5800 -4693.61 -2873.38 5800 1340.15 -2873.17 5800 
3693.84 -2873.09 5800 -4693.7 -2860.38 5800 1345.27 -2860.17 5800 
3696.11 -2860.09 5800 -4693.79 -2847.38 5800 1350.38 -2847.17 5800 
3698.37 -2847.09 5800 -4693.87 -2834.38 5800 1355.49 -2834.17 5800 
3700.64 -2834.09 5800 -4693.96 -2821.38 5800 1360.61 -2821.17 5800 
3702.9 -2821.09 5800 -4693.79 -2808.38 5800 1362.83 -2815.52 5800 
1365.72 -2808.17 5800 3705.17 -2808.09 5800 -4693.32 -2795.38 5800 
1370.84 -2795.17 5800 3707.43 -2795.09 5800 -4692.87 -2782.38 5800 
1375.95 -2782.17 5800 3709.69 -2782.09 5800 -4692.34 -2769.37 5800 
1381.32 -2769.17 5800 3711.92 -2769.33 5800 3711.96 -2769.08 5800 
-4691.78 -2756.37 5800 1386.89 -2756.16 5800 3714.22 -2756.08 5800 
-4691.22 -2743.37 5800 1391.84 -2745.32 5800 1392.82 -2743.16 5800 
3716.49 -2743.08 5800 -4690.66 -2730.37 5800 1398.75 -2730.16 5800 
3718.75 -2730.08 5800 -4690.1 -2717.37 5800 1404.68 -2717.16 5800 
3721.02 -2717.08 5800 -4689.54 -2704.37 5800 1410.61 -2704.16 5800 
3723.28 -2704.08 5800 -4688.99 -2691.37 5800 1416.54 -2691.16 5800 
3726.15 -2691.08 5800 -4688.43 -2678.37 5800 1420.84 -2681.73 5800 
1422.23 -2678.16 5800 3729.03 -2678.08 5800 -4687.87 -2665.37 5800 
1424.59 -2665.16 5800 3732.43 -2665.08 5800 -4687.31 -2652.37 5800 
1426.28 -2652.15 5800 3736.05 -2652.08 5800 -4686.75 -2639.36 5800 
1427.97 -2639.15 5800 3739.67 -2639.07 5800 -4686.19 -2626.36 5800 
1429.65 -2626.15 5800 3732.37 -2626.07 5800 -4685.63 -2613.36 5800 
1431.34 -2613.15 5800 3725.9 -2613.07 5800 -4685.07 -2600.36 5800 
1433.03 -2600.15 5800 3718.17 -2600.07 5800 -4684.51 -2587.36 5800 
1434.72 -2587.15 5800 3711.93 -2589.57 5800 3710.44 -2587.07 5800 
-4683.95 -2574.36 5800 1436.4 -2574.15 5800 3702.71 -2574.07 5800 
-4683.39 -2561.36 5800 1438.09 -2561.15 5800 3694.98 -2561.07 5800 
-4682.84 -2548.36 5800 1439.78 -2548.15 5800 3687.25 -2548.07 5800 
-4682.28 -2535.36 5800 1441.47 -2535.15 5800 3682.93 -2540.8 5800 
3679.52 -2535.07 5800 -4681.72 -2522.36 5800 1443.15 -2522.14 5800 
3671.79 -2522.07 5800 -4681.65 -2509.35 5800 1444.84 -2509.14 5800 
3664.06 -2509.07 5800 -4682.15 -2496.35 5800 1446.53 -2496.14 5800 
3656.33 -2496.07 5800 -4682.65 -2483.35 5800 1448.22 -2483.14 5800 
3653.93 -2492.04 5800 3648.6 -2483.07 5800 -4683.15 -2470.35 5800 
1449.86 -2470.47 5800 1449.9 -2470.14 5800 3640.87 -2470.06 5800 
-4683.65 -2457.35 5800 1451.66 -2457.14 5800 3633.14 -2457.06 5800 
-4684.16 -2444.35 5800 1453.41 -2444.14 5800 3625.41 -2444.06 5800 
-4684.66 -2431.35 5800 1455.18 -2431.14 5800 3624.94 -2443.27 5800 
3617.68 -2431.06 5800 -4685.16 -2418.35 5800 1456.95 -2418.14 5800 
3609.95 -2418.06 5800 -4685.66 -2405.35 5800 1458.73 -2405.13 5800 
3602.21 -2405.06 5800 -4686.16 -2392.35 5800 1460.52 -2392.13 5800 
3595.94 -2394.51 5800 3594.48 -2392.06 5800 -4686.66 -2379.34 5800 
1462.31 -2379.13 5800 3586.75 -2379.06 5800 -4687.16 -2366.34 5800 
1464.11 -2366.13 5800 3579.02 -2366.06 5800 -4687.66 -2353.34 5800 
1465.92 -2353.13 5800 3571.29 -2353.06 5800 -4688.16 -2340.34 5800 
1467.73 -2340.13 5800 3566.94 -2345.74 5800 3563.56 -2340.06 5800 
-4688.67 -2327.34 5800 1469.56 -2327.13 5800 3555.83 -2327.06 5800 
-4689.17 -2314.34 5800 1471.39 -2314.13 5800 3548.1 -2314.06 5800 
-4689.67 -2301.34 5800 1473.23 -2301.13 5800 3540.37 -2301.05 5800 
-4690.17 -2288.34 5800 1475.07 -2288.13 5800 3537.95 -2296.98 5800 
3532.64 -2288.05 5800 -4690.67 -2275.34 5800 1476.93 -2275.12 5800 
3524.91 -2275.05 5800 -4691.17 -2262.34 5800 1478.79 -2262.12 5800 
3517.18 -2262.05 5800 -4691.67 -2249.33 5800 1478.88 -2261.5 5800 
1480.75 -2249.12 5800 3509.45 -2249.05 5800 -4692.17 -2236.33 5800 
1482.71 -2236.12 5800 3508.95 -2248.21 5800 3501.96 -2236.05 5800 
-4692.67 -2223.33 5800 1484.68 -2223.12 5800 3497.44 -2223.05 5800 
-4693.17 -2210.33 5800 1486.64 -2210.12 5800 3495.02 -2210.05 5800 
-4693.68 -2197.33 5800 1488.61 -2197.12 5800 3495 -2197.05 5800 
-4694.18 -2184.33 5800 1490.57 -2184.12 5800 3494.99 -2184.05 5800 
-4694.68 -2171.33 5800 1492.54 -2171.12 5800 3494.97 -2171.05 5800 
-4695.18 -2158.33 5800 1494.5 -2158.11 5800 3494.95 -2158.05 5800 
-4695.68 -2145.33 5800 1496.47 -2145.11 5800 3494.93 -2145.04 5800 
-4696.18 -2132.33 5800 1500.93 -2132.11 5800 3494.91 -2132.04 5800 
-4696.68 -2119.32 5800 1504.97 -2119.11 5800 3494.89 -2119.04 5800 
-4697.18 -2106.32 5800 1507.89 -2115.72 5800 1517.34 -2106.11 5800 
3494.87 -2106.04 5800 -4697.68 -2093.32 5800 1527.38 -2093.11 5800 
3494.85 -2093.04 5800 -4698.19 -2080.32 5800 1536.89 -2082.07 5800 
1538.59 -2080.11 5800 3494.83 -2080.04 5800 -4698.32 -2076.78 5800 
-4698.69 -2067.32 5800 1549.8 -2067.11 5800 3494.82 -2067.04 5800 
-4699.19 -2054.32 5800 1561 -2054.1 5800 3494.8 -2054.04 5800 
-4699.69 -2041.32 5800 1565.9 -2048.43 5800 1572.21 -2041.1 5800 
3494.78 -2041.04 5800 -4700.19 -2028.32 5800 1583.42 -2028.1 5800 
3494.76 -2028.04 5800 -4700.69 -2015.32 5800 1594.63 -2015.1 5800 
3494.74 -2015.03 5800 -4701.19 -2002.32 5800 1594.9 -2014.78 5800 
1605.83 -2002.1 5800 3494.71 -2002.03 5800 -4706.18 -1989.32 5800 
1617.04 -1989.1 5800 3494.59 -1989.03 5800 -4710.82 -1976.31 5800 
1623.9 -1981.13 5800 1628.25 -1976.1 5800 3494.39 -1976.03 5800 
-4713.89 -1963.31 5800 1639.45 -1963.09 5800 3494.17 -1963.03 5800 
-4716.07 -1950.31 5800 1650.66 -1950.09 5800 3493.96 -1950.03 5800 
-4717.7 -1937.31 5800 1652.91 -1947.49 5800 1661.87 -1937.09 5800 
3493.75 -1937.03 5800 -4721.89 -1924.31 5800 1673.08 -1924.09 5800 
3493.53 -1924.03 5800 -4725.82 -1911.31 5800 1681.91 -1913.84 5800 
1683.68 -1911.09 5800 3493.32 -1911.03 5800 -4727.31 -1906.36 5800 
-4730.31 -1898.31 5800 1689.36 -1898.09 5800 3493.11 -1898.03 5800 
-4734.08 -1885.31 5800 1694.72 -1885.09 5800 3492.89 -1885.02 5800 
-4736.95 -1872.31 5800 1700.07 -1872.09 5800 3492.68 -1872.02 5800 
-4741.53 -1859.31 5800 1705.42 -1859.08 5800 3492.47 -1859.02 5800 
-4745.45 -1846.31 5800 1710.77 -1846.08 5800 3492.25 -1846.02 5800 
-4749.38 -1833.3 5800 1710.92 -1845.74 5800 1716.13 -1833.08 5800 
3492.04 -1833.02 5800 -4753.31 -1820.3 5800 1721.48 -1820.08 5800 
3491.83 -1820.02 5800 -4756.3 -1810.39 5800 -4757.24 -1807.3 5800 
1726.83 -1807.08 5800 3491.61 -1807.02 5800 -4761.16 -1794.3 5800 
1732.19 -1794.08 5800 3491.4 -1794.02 5800 -4765.09 -1781.3 5800 
1737.54 -1781.08 5800 3491.19 -1781.02 5800 -4769.02 -1768.3 5800 
1739.92 -1775.28 5800 1741.76 -1768.08 5800 3490.97 -1768.02 5800 
-4772.95 -1755.3 5800 1745.21 -1755.07 5800 3490.76 -1755.01 5800 
-4776.87 -1742.3 5800 1748.84 -1742.07 5800 2400.99 -1742.05 5800 
2406.95 -1750.05 5800 2435.95 -1743.58 5800 2442.79 -1742.05 5800 
3490.54 -1742.01 5800 -4780.8 -1729.3 5800 1752.79 -1729.07 5800 
2397.24 -1729.05 5800 2464.95 -1737.1 5800 2493.95 -1730.63 5800 
2501.06 -1729.05 5800 3490.33 -1729.01 5800 -4784.73 -1716.3 5800 
1757.06 -1716.07 5800 2393.89 -1716.05 5800 2522.95 -1724.16 5800 
2551.96 -1717.69 5800 2559.34 -1716.04 5800 3490.12 -1716.01 5800 
-4785.3 -1714.42 5800 -4788.66 -1703.3 5800 1761.61 -1703.07 5800 
2390.54 -1703.05 5800 2580.96 -1711.22 5800 2609.96 -1703.67 5800 
2611.95 -1703.04 5800 3489.9 -1703.01 5800 -4792.58 -1690.3 5800 
1766.47 -1690.07 5800 2387.19 -1690.05 5800 2638.96 -1694.44 5800 
2652.79 -1690.04 5800 3489.69 -1690.01 5800 -4796.51 -1677.29 5800 
1768.93 -1683.78 5800 1770.58 -1677.07 5800 2383.84 -1677.05 5800 
2667.96 -1685.21 5800 2687.66 -1677.04 5800 3489.15 -1677.01 5800 
-4800.44 -1664.29 5800 1773.76 -1664.07 5800 2380.49 -1664.05 5800 
2696.96 -1672.9 5800 2715.26 -1664.03 5800 3486.78 -1664.01 5800 
-4804.37 -1651.29 5800 1776.95 -1651.07 5800 2377.14 -1651.05 5800 
2377.95 -1654.22 5800 2725.97 -1658.85 5800 2742.1 -1651.03 5800 
3480.63 -1651.01 5800 -4808.3 -1638.29 5800 1780.14 -1638.06 5800 
2373.79 -1638.04 5800 2754.97 -1644.8 5800 2768.93 -1638.03 5800 
[...]
POINT_DATA 16436
SCALARS Pressure double
LOOKUP_TABLE default
3.0914644417 3.0914644417 3.0914644417 3.0914644417 3.0914644417 3.0914644417 3.0914644417 3.0914644417 3.0914644417 
3.0914644417 3.0914644417 3.0914644417 3.0914644417 3.0914644417 3.0914644417 3.0914644417 3.0914644417 3.0914644417 
3.0914644417 3.0914644417 3.0914644417 3.0914644417 3.0914644417 3.0914644417 3.0914644417 3.0914644417 3.0914644417 
3.0914644417 3.0914644417 3.0914644417 3.0914644417 3.0914644417 3.0914644417 3.0914644417 3.0914644417 3.0914644417 
3.0914644417 3.0914644417 3.0914644417 3.0914644417 3.0914644417 3.0914644417 3.0914644417 3.0914644417 3.0914644417 
3.0914644417 3.0914644417 3.0914644417 3.0914644417 3.0914644417 3.0914644417 3.0914644417 3.0914644417 3.0914644417 
3.0914644417 3.0914644417 3.0914644417 3.0914644417 3.0914644417 3.0914644417 3.0914644417 3.0914644417 3.0914644417 
3.0914644417 3.0914644417 3.0914644417 3.0914644417 3.0914644417 3.0914644417 3.0914644417 3.0914644417 3.0914644417 
3.0914644417 3.0914644417 3.0914644417 3.0914644417 3.0914644417 3.0914644417 3.0914644417 3.0914644417 3.0914644417 
3.0914644417 3.0914644417 3.0914644417 3.0914644417 3.0914644417 3.0914644417 3.0914644417 3.0914644417 3.0914644417 
3.0914644417 3.0914644417 3.0914644417 3.0914644417 3.0914644417 3.0914644417 3.0914644417 3.0914644417 3.0914644417 
3.0914644417 3.0914644417 3.0914644417 3.0914644417 3.0914644417 3.0914644417 3.0914644417 3.0914644417 3.0914644417 
3.0914644417 3.0914644417 3.0914644417 3.0914644417 3.0914644417 3.0914644417 3.0914644417 3.0914644417 3.0914644417 
3.0914644417 3.0914644417 3.0914644417 3.0914644417 3.0914644417 3.0914644417 3.0914644417 3.0914644417 3.0914644417 
3.0914644417 3.0914644417 3.0914644417 3.0914644417 3.0914644417 3.0914644417 3.0914644417 3.0914644417 3.0914644417 
3.0914644417 3.0914644417 3.0914644417 3.0914644417 3.0914644417 3.0914644417 3.0914644417 3.0914644417 3.0914644417 
3.0914644417 3.0914644417 3.0914644417 3.0914644417 3.0914644417 3.0914644417 3.0914644417 3.0914644417 3.0914644417 
3.0914644417 3.0914644417 3.0914644417 3.0914644417 3.0914644417 3.0914644417 3.0914644417 3.0914644417 3.0914644417 
3.0914644417 3.0914644417 3.0914644417 3.0914644417 3.0914644417 3.0914644417 3.0914644417 3.0914644417 3.0914644417 
3.0914644417 3.0914644417 3.0914644417 3.0914644417 3.0914644417 3.0914644417 3.0914644417 3.0914644417 3.0914644417 
3.0914644417 3.0914644417 3.0914644417 3.0914644417 3.0914644417 3.0914644417 3.0914644417 3.0914644417 3.0914644417 
3.0914644417 3.0914644417 3.0914644417 3.0914644417 3.0914644417 3.0914644417 3.0914644417 3.0914644417 3.0914644417 
3.0914644417 3.0914644417 3.0914644417 3.0914644417 3.0914644417 3.0914644417 3.0914644417 3.0914644417 3.0914644417 
3.0914644417 3.0914644417 3.0914644417 3.0914644417 3.0914644417 3.0914644417 3.0914644417 3.0914644417 3.0914644417 
3.0914644417 3.0914644417 3.0914644417 3.0914644417 3.0914644417 3.0914644417 3.0914644417 3.0914644417 3.0914644417 
3.0914644417 3.0914644417 3.0914644417 3.0914644417 3.0914644417 3.0914644417 3.0914644417 3.0914644417 3.0914644417 
3.0914644417 3.0914644417 3.0914644417 3.0914644417 3.0914644417 3.0914644417 3.0914644417 3.0914644417 3.0914644417 
3.0914644417 3.0914644417 3.0914644417 3.0914644417 3.0914644417 3.0914644417 3.0914644417 3.0914644417 3.0914644417 
3.0914644417 3.0914644417 3.0914644417 3.0914644417 3.0914644417 3.0914644417 3.0914644417 3.0914644417 3.0914644417 
3.0914644417 3.0914644417 3.0914644417 3.0914644417 3.0914644417 3.0914644417 3.0914644417 3.0914644417 3.0914644417 
3.0914644417 3.0914644417 3.0914644417 3.0914644417 3.0914644417 3.0914644417 3.0914644417 3.0914644417 3.0914644417 
3.0914644417 3.0914644417 3.0914644417 3.0914644417 3.0914644417 3.0914644417 3.0914644417 3.0914644417 3.0914644417 
3.0914644417 3.0914644417 3.0914644417 3.0914644417 3.0914644417 3.0914644417 3.0914644417 3.0914644417 3.0914644417 
3.0914644417 3.0914644417 3.0914644417 3.0914644417 3.0914644417 3.0914644417 3.0914644417 3.0914644417 3.0914644417 
3.0914644417 3.0914644417 3.0914644417 3.0914644417 3.0914644417 3.0914644417 3.0914644417 3.0914644417 3.0914644417 
3.0914644417 3.0914644417 3.0914644417 3.0914644417 3.0914644417 3.0914644417 3.0914644417 3.0914644417 3.0914644417 
3.0914644417 3.0914644417 3.0914644417 3.0914644417 3.0914644417 3.0914644417 3.0914644417 3.0914644417 3.0914644417 
3.0914644417 3.0914644417 3.0914644417 3.0914644417 3.0914644417 3.0914644417 3.0914644417 3.0914644417 3.0914644417 
3.0914644417 3.0914644417 3.0914644417 3.0914644417 3.0914644417 3.0914644417 3.0914644417 3.0914644417 3.0914644417 
3.0914644417 3.0914644417 3.0914644417 3.0914644417 3.0914644417 3.0914644417 3.0914644417 3.0914644417 3.0914644417 
3.0914644417 3.0914644417 3.0914644417 3.0914644417 3.0914644417 3.0914644417 3.0914644417 3.0914644417 3.0914644417 
3.0914644417 3.0914644417 3.0914644417 3.0914644417 3.0914644417 3.0914644417 3.0914644417 3.0914644417 3.0914644417 
3.0914644417 3.0914644417 3.0914644417 3.0914644417 3.0914644417 3.0971770375 3.0971770375 3.0971770375 3.0971770375 
3.0914644417 3.0914644417 3.0914644417 3.0971770375 3.0971770375 3.0971770375 3.0971770375 3.0914644417 3.0914644417 
3.0914644417 3.0971770375 3.0971770375 3.0971770375 3.0971770375 3.0914644417 3.0914644417 3.0914644417 3.0914644417 
3.0971770375 3.0971770375 3.0971770375 3.0971770375 3.0914644417 3.0914644417 3.0914644417 3.0971770375 3.0971770375 
3.0971770375 3.0914644417 3.0914644417 3.0914644417 3.0914644417 3.0971770375 3.0971770375 3.0971770375 3.0914644417 
3.0914644417 3.0914644417 3.0971770375 3.0971770375 3.0971770375 3.0914644417 3.0914644417 3.0914644417 3.0971770375 
3.0971770375 3.0971770375 3.0971770375 3.0914644417 3.0914644417 3.0914644417 3.0971770375 3.0971770375 3.0971770375 
3.0914644417 3.0914644417 3.0914644417 3.0914644417 3.0971770375 3.0971770375 3.0971770375 3.0914644417 3.0914644417 
3.0914644417 3.0914644417 3.0971770375 3.0971770375 3.0971770375 3.0914644417 3.0914644417 3.0914644417 3.0971770375 
3.0971770375 3.0971770375 3.0914644417 3.0914644417 3.0914644417 3.0971770375 3.0971770375 3.0914644417 3.0914644417 
3.0914644417 3.0914644417 3.0971770375 3.0971770375 3.0971770375 3.0914644417 3.0914644417 3.0914644417 3.0914644417 
3.0971770375 3.0971770375 3.0914644417 3.0914644417 3.0914644417 3.0971770375 3.0971770375 3.0914644417 3.0914644417 
3.0914644417 3.0971770375 3.0971770375 3.0971770375 3.0971770375 3.0914644417 3.0914644417 3.0914644417 3.0914644417 
3.0914644417 3.0971770375 3.0971770375 3.0914644417 3.0914644417 3.0914644417 3.0971770375 3.0971770375 3.0914644417 
3.0914644417 3.0914644417 3.0971770375 3.0971770375 3.0971770375 3.0914644417 3.0914644417 3.0914644417 3.0971770375 
3.0971770375 3.0914644417 3.0914644417 3.0914644417 3.0914644417 3.0971770375 3.0971770375 3.0914644417 3.0914644417 
3.0914644417 3.0971770375 3.0971770375 3.0971770375 3.0914644417 3.0914644417 3.0914644417 3.0914644417 3.0971770375 
3.0971770375 3.0971770375 3.0914644417 3.0914644417 3.0914644417 3.0971770375 3.0971770375 3.0914644417 3.0914644417 
3.0914644417 3.0914644417 3.0971770375 3.0971770375 3.0971770375 3.0971770375 3.0914644417 3.0914644417 3.0914644417 
3.0971770375 3.0971770375 3.0914644417 3.0914644417 3.0914644417 3.0971770375 3.0971770375 3.0971770375 3.0914644417 
3.0914644417 3.0914644417 3.0971770375 3.0971770375 3.0971770375 3.0914644417 3.0914644417 3.0914644417 3.0971770375 
3.0971770375 3.0914644417 3.0914644417 3.0914644417 3.0971770375 3.0971770375 3.0971770375 3.0914644417 3.0914644417 
3.0914644417 3.0914644417 3.0971770375 3.0971770375 3.0971770375 3.0914644417 3.0914644417 3.0914644417 3.0914644417 
3.0971770375 3.0971770375 3.0914644417 3.0914644417 3.0914644417 3.0971770375 3.0971770375 3.0914644417 3.0914644417 
3.0914644417 3.0971770375 3.0971770375 3.0914644417 3.0914644417 3.0914644417 3.0971770375 3.0971770375 3.0914644417 
3.0914644417 3.0914644417 3.0971770375 3.0971770375 3.0914644417 3.0914644417 3.0914644417 3.0971770375 3.0971770375 
3.0971770375 3.0914644417 3.0914644417 3.0914644417 3.0971770375 3.0971770375 3.0914644417 3.0914644417 3.0914644417 
3.0971770375 3.0971770375 3.0914644417 3.0914644417 3.0914644417 3.0914644417 3.0971770375 3.1028896334 3.1028896334 
3.1028896334 3.0971770375 3.0914644417 3.0914644417 3.0914644417 3.0971770375 3.1028896334 3.1028896334 3.1028896334 
3.0971770375 3.0914644417 3.0914644417 3.0914644417 3.0971770375 3.1028896334 3.1028896334 3.1028896334 3.0971770375 
3.0971770375 3.0914644417 3.0914644417 3.0914644417 3.0971770375 3.1028896334 3.1028896334 3.1028896334 3.1028896334 
3.0971770375 3.0914644417 3.0914644417 3.0914644417 3.0914644417 3.0971770375 3.0971770375 3.1028896334 3.1028896334 
3.1028896334 3.0971770375 3.0914644417 3.0857518459 3.0857518459 3.0857518459 3.0914644417 3.0914644417 3.0971770375 
3.1028896334 3.1028896334 3.1028896334 3.1028896334 3.0971770375 3.0914644417 3.0857518459 3.0857518459 3.0857518459 
3.0914644417 3.0914644417 3.0971770375 3.1028896334 3.1028896334 3.1028896334 3.1028896334 3.0971770375 3.0914644417 
3.0857518459 3.0857518459 3.0857518459 3.0857518459 3.0914644417 3.0914644417 3.0914644417 3.0971770375 3.1028896334 
3.1028896334 3.1028896334 3.0971770375 3.0914644417 3.0857518459 3.0857518459 3.0857518459 3.0857518459 3.0857518459 
3.0914644417 3.0914644417 3.0971770375 3.1028896334 3.1028896334 3.1028896334 3.1028896334 3.0971770375 3.0914644417 
3.0857518459 3.0857518459 3.0857518459 3.0857518459 3.0857518459 3.0857518459 3.0914644417 3.0914644417 3.0971770375 
3.1028896334 3.1028896334 3.0971770375 3.0914644417 3.0857518459 3.0857518459 3.0857518459 3.0857518459 3.0857518459 
3.0914644417 3.0914644417 3.0971770375 3.1028896334 3.1028896334 3.0971770375 3.0914644417 3.0857518459 3.0857518459 
3.0857518459 3.0914644417 3.0914644417 3.0971770375 3.1028896334 3.1028896334 3.1028896334 3.0971770375 3.0914644417 
3.0857518459 3.0857518459 3.0857518459 3.0914644417 3.0914644417 3.0971770375 3.1028896334 3.1028896334 3.0971770375 
3.0914644417 3.0857518459 3.0857518459 3.0857518459 3.0914644417 3.0914644417 3.0971770375 3.1028896334 3.1028896334 
3.1028896334 3.0971770375 3.0914644417 3.0857518459 3.0857518459 3.0914644417 3.0914644417 3.0914644417 3.0971770375 
3.1028896334 3.1028896334 3.1028896334 3.0971770375 3.0914644417 3.0857518459 3.0857518459 3.0857518459 3.0914644417 
3.0914644417 3.0914644417 3.0971770375 3.1028896334 3.1028896334 3.1028896334 3.0971770375 3.0914644417 3.0857518459 
3.0857518459 3.0857518459 3.0914644417 3.0914644417 3.0971770375 3.0971770375 3.1028896334 3.1028896334 3.1028896334 
3.0971770375 3.0914644417 3.0857518459 3.0857518459 3.0914644417 3.0914644417 3.0971770375 3.1028896334 3.1028896334 
3.0971770375 3.0914644417 3.0857518459 3.0857518459 3.0914644417 3.0914644417 3.0914644417 3.0971770375 3.1028896334 
3.1028896334 3.0971770375 3.0914644417 3.0857518459 3.0857518459 3.0857518459 3.0914644417 3.0914644417 3.0971770375 
3.1028896334 3.1028896334 3.1028896334 3.0971770375 3.0914644417 3.0857518459 3.0857518459 3.0857518459 3.0914644417 
3.0857518459 3.0857518459 3.0857518459 3.0857518459 3.0914644417 3.0971770375 3.1028896334 3.1028896334 3.0971770375 
3.0914644417 3.0857518459 3.0857518459 3.0914644417 3.0857518459 3.0857518459 3.0857518459 3.0857518459 3.0914644417 
3.0971770375 3.1028896334 3.1028896334 3.0971770375 3.0914644417 3.0857518459 3.0857518459 3.0857518459 3.0914644417 
3.0914644417 3.0857518459 3.0857518459 3.0857518459 3.0914644417 3.0914644417 3.0971770375 3.1028896334 3.1028896334 
3.1028896334 3.0971770375 3.0914644417 3.0857518459 3.0857518459 3.0914644417 3.0857518459 3.0857518459 3.0857518459 
3.0914644417 3.0971770375 3.1028896334 3.1028896334 3.0971770375 3.0914644417 3.0914644417 3.0857518459 3.0857518459 
3.0857518459 3.0914644417 3.0857518459 3.0857518459 3.0857518459 3.0857518459 3.0857518459 3.0914644417 3.0971770375 
3.1028896334 3.1086022292 3.1086022292 3.1086022292 3.1086022292 3.1028896334 3.1028896334 3.0971770375 3.0971770375 
3.0914644417 3.0857518459 3.0857518459 3.0914644417 3.0857518459 3.0857518459 3.0857518459 3.0914644417 3.0971770375 
3.1028896334 3.1086022292 3.1086022292 3.1028896334 3.0971770375 3.0914644417 3.0857518459 3.0857518459 3.0857518459 
3.0914644417 3.0857518459 3.0857518459 3.0857518459 3.0857518459 3.0914644417 3.0971770375 3.1028896334 3.1086022292 
3.1086022292 3.1086022292 3.1086022292 3.1028896334 3.0971770375 3.0914644417 3.0857518459 3.0857518459 3.0914644417 
3.0857518459 3.0857518459 3.0857518459 3.0914644417 3.0971770375 3.1028896334 3.1028896334 3.1086022292 3.1086022292 
3.1086022292 3.1086022292 3.1028896334 3.0971770375 3.0914644417 3.0857518459 3.0857518459 3.0857518459 3.0914644417 
3.0857518459 3.0857518459 3.0857518459 3.0857518459 3.0857518459 3.0857518459 3.0857518459 3.0857518459 3.0914644417 
3.0971770375 3.1028896334 3.1086022292 3.1086022292 3.1086022292 3.1086022292 3.1086022292 3.1028896334 3.0971770375 
3.0914644417 3.0857518459 3.0857518459 3.0914644417 3.0914644417 3.0857518459 3.0857518459 3.0857518459 3.0857518459 
3.0914644417 3.0971770375 3.1028896334 3.1086022292 3.1086022292 3.1086022292 3.1028896334 3.0971770375 3.0914644417 
3.0857518459 3.0857518459 3.0857518459 3.0914644417 3.0857518459 3.0857518459 3.0857518459 3.0914644417 3.0971770375 
3.1028896334 3.1086022292 3.1086022292 3.1086022292 3.1028896334 3.1028896334 3.0971770375 3.0914644417 3.0857518459 
3.0857518459 3.0914644417 3.0857518459 3.0857518459 3.0857518459 3.0914644417 3.0971770375 3.1028896334 3.1086022292 
3.1086022292 3.1086022292 3.1028896334 3.0971770375 3.0914644417 3.0914644417 3.0857518459 3.0857518459 3.0857518459 
3.0914644417 3.0857518459 3.0857518459 3.0914644417 3.0971770375 3.1028896334 3.1086022292 3.1086022292 3.1086022292 
3.1028896334 3.0971770375 3.0914644417 3.0857518459 3.0857518459 3.0857518459 3.0914644417 3.0857518459 3.0857518459 
3.0857518459 3.0914644417 3.0971770375 3.1028896334 3.1028896334 3.1086022292 3.1086022292 3.1028896334 3.0971770375 
3.0914644417 3.0857518459 3.0857518459 3.0914644417 3.0857518459 3.0857518459 3.0857518459 3.0914644417 3.0971770375 
3.1028896334 3.1086022292 3.1086022292 3.1028896334 3.0971770375 3.0914644417 3.0857518459 3.0857518459 3.0914644417 
3.0857518459 3.0857518459 3.0857518459 3.0914644417 3.0971770375 3.1028896334 3.1086022292 3.1086022292 3.1086022292 
3.1028896334 3.0971770375 3.0914644417 3.0857518459 3.0857518459 3.0914644417 3.0857518459 3.0857518459 3.0857518459 
3.0914644417 3.0914644417 3.0971770375 3.1028896334 3.1086022292 3.1086022292 3.1028896334 3.0971770375 3.0914644417 
3.0857518459 3.0857518459 3.0857518459 3.0857518459 3.0914644417 3.0857518459 3.0857518459 3.0914644417 3.0971770375 
3.1028896334 3.1086022292 3.1086022292 3.114314825 3.114314825 3.114314825 3.1086022292 3.1086022292 3.1028896334 
3.0971770375 3.0914644417 3.0857518459 3.0857518459 3.0914644417 3.0914644417 3.0857518459 3.0857518459 3.0857518459 
3.0857518459 3.0914644417 3.0971770375 3.1028896334 3.1086022292 3.114314825 3.114314825 3.114314825 3.114314825 
3.1086022292 3.1028896334 3.1028896334 3.0971770375 3.0914644417 3.0857518459 3.0857518459 3.0914644417 3.0857518459 
3.0857518459 3.0857518459 3.0914644417 3.0971770375 3.1028896334 3.1086022292 3.114314825 3.114314825 3.114314825 
3.114314825 3.1086022292 3.1086022292 3.1028896334 3.0971770375 3.0914644417 3.0914644417 3.0857518459 3.0857518459 
3.0914644417 3.0857518459 3.0857518459 3.0857518459 3.0914644417 3.0971770375 3.1028896334 3.1028896334 3.1086022292 
3.1086022292 3.114314825 3.114314825 3.114314825 3.114314825 3.1086022292 3.1028896334 3.0971770375 3.0914644417 
3.0857518459 3.0857518459 3.0857518459 3.0857518459 3.0914644417 3.0914644417 3.0857518459 3.0857518459 3.0857518459 
3.0914644417 3.0971770375 3.1028896334 3.1086022292 3.114314825 3.114314825 3.114314825 3.114314825 3.1086022292 
3.1028896334 3.0971770375 3.0914644417 3.0857518459 3.0857518459 3.0914644417 3.0857518459 3.0857518459 3.0857518459 
3.0914644417 3.0914644417 3.0971770375 3.1028896334 3.1086022292 3.114314825 3.114314825 3.114314825 3.1086022292 
3.1086022292 3.1028896334 3.0971770375 3.0914644417 3.0857518459 3.0857518459 3.0914644417 3.0857518459 3.0857518459 
3.0857518459 3.0914644417 3.0971770375 3.1028896334 3.1086022292 3.114314825 3.114314825 3.1086022292 3.1028896334 
3.1028896334 3.0971770375 3.0971770375 3.0914644417 3.0857518459 3.0857518459 3.0857518459 3.0857518459 3.0914644417 
3.0914644417 3.0857518459 3.0857518459 3.0914644417 3.0971770375 3.1028896334 3.1086022292 3.114314825 3.114314825 
3.114314825 3.1086022292 3.1028896334 3.0971770375 3.0914644417 3.0857518459 3.0857518459 3.0857518459 3.0914644417 
3.0857518459 3.0857518459 3.0857518459 3.0914644417 3.0914644417 3.0971770375 3.1028896334 3.1086022292 3.1086022292 
3.114314825 3.114314825 3.114314825 3.1086022292 3.1086022292 3.1028896334 3.0971770375 3.0914644417 3.0857518459 
3.0857518459 3.0914644417 3.0857518459 3.0857518459 3.0857518459 3.0914644417 3.0971770375 3.1028896334 3.1086022292 
3.114314825 3.114314825 3.1086022292 3.1028896334 3.0971770375 3.0914644417 3.0857518459 3.0857518459 3.0857518459 
3.0914644417 3.0914644417 3.0857518459 3.0857518459 3.0914644417 3.0971770375 3.1028896334 3.1086022292 3.114314825 
3.114314825 3.1200274208 3.1200274208 3.1200274208 3.1200274208 3.114314825 3.1086022292 3.1028896334 3.0971770375 
3.0914644417 3.0857518459 3.0857518459 3.0914644417 3.0857518459 3.0857518459 3.0914644417 3.0971770375 3.1028896334 
3.1086022292 3.114314825 3.1200274208 3.1200274208 3.1200274208 3.1200274208 3.114314825 3.114314825 3.1086022292 
3.1028896334 3.0971770375 3.0914644417 3.0857518459 3.0857518459 3.0857518459 3.0914644417 3.0857518459 3.0857518459 
3.0914644417 3.0971770375 3.1028896334 3.1086022292 3.114314825 3.1200274208 3.1200274208 3.1200274208 3.1200274208 
3.114314825 3.1086022292 3.1028896334 3.0971770375 3.0914644417 3.0857518459 3.0800392501 3.0800392501 3.0800392501 
3.0800392501 3.0857518459 3.0857518459 3.0857518459 3.0914644417 3.0914644417 3.0857518459 3.0857518459 3.0857518459 
3.0857518459 3.0914644417 3.0971770375 3.1028896334 3.1028896334 3.1086022292 3.114314825 3.114314825 3.1200274208 
3.1200274208 3.114314825 3.1086022292 3.1028896334 3.0971770375 3.0914644417 3.0857518459 3.0857518459 3.0800392501 
3.0800392501 3.0800392501 3.0857518459 3.0857518459 3.0914644417 3.0857518459 3.0857518459 3.0914644417 3.0971770375 
3.1028896334 3.1086022292 3.114314825 3.1200274208 3.1200274208 3.1200274208 3.1200274208 3.114314825 3.114314825 
3.1086022292 3.1086022292 3.1028896334 3.0971770375 3.0914644417 3.0857518459 3.0800392501 3.0800392501 3.0800392501 
3.0800392501 3.0857518459 3.0857518459 3.0914644417 3.0914644417 3.0857518459 3.0857518459 3.0857518459 3.0914644417 
3.0971770375 3.1028896334 3.1086022292 3.114314825 3.1200274208 3.1200274208 3.1200274208 3.1200274208 3.114314825 
3.1086022292 3.1028896334 3.1028896334 3.0971770375 3.0914644417 3.0857518459 3.0800392501 3.0800392501 3.0800392501 
3.0857518459 3.0857518459 3.0914644417 3.0857518459 3.0857518459 3.0914644417 3.0971770375 3.1028896334 3.1086022292 
3.114314825 3.1200274208 3.1200274208 3.114314825 3.1086022292 3.1028896334 3.0971770375 3.0914644417 3.0857518459 
3.0800392501 3.0800392501 3.0800392501 3.0857518459 3.0857518459 3.0914644417 3.0857518459 3.0857518459 3.0914644417 
3.0971770375 3.1028896334 3.1086022292 3.1086022292 3.114314825 3.114314825 3.1200274208 3.1200274208 3.1200274208 
3.1200274208 3.114314825 3.114314825 3.1086022292 3.1028896334 3.0971770375 3.0914644417 3.0857518459 3.0800392501 
3.0800392501 3.0800392501 3.0857518459 3.0857518459 3.0857518459 3.0914644417 3.0914644417 3.0857518459 3.0857518459 
3.0857518459 3.0857518459 3.0914644417 3.0971770375 3.1028896334 3.1086022292 3.114314825 3.1200274208 3.1257400166 