# vtk DataFile Version 4.2
vtk output
ASCII
DATASET POLYDATA
POINTS 19268 float
-6830.32 -4250.43 0 -6835.47 -4233.43 0 1125.16 -4233.22 0 
1130.35 -4250.22 0 2733.75 -4250.18 0 2737.82 -4239.21 0 
2740.07 -4233.17 0 -6840.62 -4216.43 0 1119.98 -4216.22 0 
2746.39 -4216.17 0 -6845.43 -4200.54 0 -6845.77 -4199.43 0 
1114.79 -4199.22 0 2752.71 -4199.17 0 -6850.92 -4182.43 0 
1109.61 -4182.22 0 1109.78 -4182.79 0 2759.03 -4182.17 0 
-6856.06 -4165.43 0 1104.42 -4165.21 0 2765.34 -4165.17 0 
-6861.21 -4148.43 0 1099.24 -4148.21 0 2771.66 -4148.17 0 
-6866.36 -4131.43 0 1094.05 -4131.21 0 2774.83 -4139.65 0 
2777.98 -4131.17 0 -6871.51 -4114.43 0 1088.87 -4114.21 0 
2784.3 -4114.17 0 -6876.65 -4097.43 0 1083.68 -4097.21 0 
2790.62 -4097.17 0 -6881.8 -4080.43 0 1078.5 -4080.21 0 
2796.94 -4080.16 0 -6882.43 -4078.37 0 -6886.95 -4063.43 0 
1073.32 -4063.21 0 2803.26 -4063.16 0 -6892.1 -4046.42 0 
1068.13 -4046.21 0 1072.79 -4061.49 0 2809.58 -4046.16 0 
-6897.25 -4029.42 0 1062.95 -4029.21 0 2811.84 -4040.09 0 
2815.9 -4029.16 0 -6902.39 -4012.42 0 1057.76 -4012.21 0 
2822.22 -4012.16 0 -6907.54 -3995.42 0 1049.8 -3995.21 0 
2828.54 -3995.16 0 -6912.69 -3978.42 0 1038.65 -3978.21 0 
2834.86 -3978.16 0 -6917.84 -3961.42 0 1027.49 -3961.21 0 
1035.79 -3973.86 0 2841.18 -3961.16 0 -6919.42 -3956.2 0 
-6922.99 -3944.42 0 1016.33 -3944.2 0 2847.5 -3944.16 0 
-6928.13 -3927.42 0 1005.17 -3927.2 0 2848.85 -3940.54 0 
2853.82 -3927.15 0 -6933.28 -3910.42 0 994.011 -3910.2 0 
998.797 -3917.49 0 2860.14 -3910.15 0 -6938.43 -3893.42 0 
982.853 -3893.2 0 2866.46 -3893.15 0 -6943.58 -3876.42 0 
971.694 -3876.2 0 2872.78 -3876.15 0 -6948.73 -3859.41 0 
960.536 -3859.2 0 961.799 -3861.13 0 2879.1 -3859.15 0 
-6953.87 -3842.41 0 949.377 -3842.2 0 2885.42 -3842.15 0 
-6956.41 -3834.03 0 -6959.02 -3825.41 0 938.219 -3825.2 0 
2885.85 -3840.98 0 2891.74 -3825.15 0 -6964.17 -3808.41 0 
927.06 -3808.2 0 2898.06 -3808.15 0 -6969.32 -3791.41 0 
915.902 -3791.2 0 924.801 -3804.76 0 2904.38 -3791.14 0 
-6974.47 -3774.41 0 904.743 -3774.2 0 2910.7 -3774.14 0 
-6979.61 -3757.41 0 893.585 -3757.2 0 2917.02 -3757.14 0 
-6984.76 -3740.41 0 882.427 -3740.2 0 887.804 -3748.39 0 
2922.86 -3741.42 0 2923.34 -3740.14 0 -6989.91 -3723.41 0 
871.268 -3723.2 0 2929.66 -3723.14 0 -6993.41 -3711.85 0 
-6995.06 -3706.41 0 860.11 -3706.19 0 2935.98 -3706.14 0 
-7000.21 -3689.41 0 848.951 -3689.19 0 850.806 -3692.02 0 
2942.29 -3689.14 0 -7005.35 -3672.41 0 837.793 -3672.19 0 
2948.61 -3672.14 0 -7010.5 -3655.4 0 826.634 -3655.19 0 
2954.93 -3655.14 0 -7015.65 -3638.4 0 815.476 -3638.19 0 
2959.87 -3641.87 0 2961.25 -3638.13 0 -7020.8 -3621.4 0 
804.317 -3621.19 0 813.808 -3635.65 0 2967.57 -3621.13 0 
-7025.94 -3604.4 0 793.159 -3604.19 0 2973.89 -3604.13 0 
-7030.4 -3589.68 0 -7031.09 -3587.4 0 782 -3587.19 0 
2980.21 -3587.13 0 -7036.24 -3570.4 0 770.842 -3570.19 0 
776.81 -3579.28 0 2986.53 -3570.13 0 -7041.39 -3553.4 0 
759.683 -3553.19 0 2992.85 -3553.13 0 -7046.54 -3536.4 0 
748.525 -3536.19 0 2996.87 -3542.31 0 2999.26 -3536.13 0 
-7051.68 -3519.4 0 738.761 -3519.19 0 739.813 -3522.91 0 
3001.29 -3519.13 0 -7056.83 -3502.4 0 734.626 -3502.19 0 
2996.87 -3512.66 0 2989 -3502.13 0 -7061.98 -3485.4 0 
732.679 -3485.19 0 2976.32 -3485.12 0 -7067.13 -3468.4 0 
732.609 -3468.18 0 2962.29 -3468.12 0 -7067.4 -3467.51 0 
-7072.28 -3451.39 0 732.539 -3451.18 0 2959.88 -3465.2 0 
2948.25 -3451.12 0 -7077.42 -3434.39 0 732.47 -3434.18 0 
2934.22 -3434.12 0 -7082.57 -3417.39 0 732.4 -3417.18 0 
2922.88 -3420.39 0 2920.18 -3417.12 0 -7087.72 -3400.39 0 
732.33 -3400.18 0 2906.15 -3400.12 0 -7092.87 -3383.39 0 
732.26 -3383.18 0 2892.11 -3383.12 0 -7098.02 -3366.39 0 
732.19 -3366.18 0 2885.88 -3375.57 0 2878.07 -3366.12 0 
-7103.16 -3349.39 0 732.121 -3349.18 0 2864.04 -3349.12 0 
-7104.39 -3345.34 0 -7108.31 -3332.39 0 732.051 -3332.18 0 
2850 -3332.12 0 -7113.46 -3315.39 0 731.981 -3315.18 0 
2848.88 -3330.76 0 2835.97 -3315.12 0 -7118.61 -3298.39 0 
731.911 -3298.17 0 2821.93 -3298.12 0 -7123.75 -3281.39 0 
731.842 -3281.17 0 2811.88 -3285.95 0 2807.9 -3281.12 0 
-7128.9 -3264.38 0 731.772 -3264.17 0 2793.86 -3264.12 0 
-7134.05 -3247.38 0 731.702 -3247.17 0 2779.83 -3247.12 0 
-7139.2 -3230.38 0 731.632 -3230.17 0 2774.88 -3241.13 0 
2765.79 -3230.12 0 -7141.38 -3223.17 0 -7144.35 -3213.38 0 
731.563 -3213.17 0 2751.75 -3213.11 0 -7149.49 -3196.38 0 
731.493 -3196.17 0 2737.89 -3196.32 0 2737.72 -3196.11 0 
-7154.64 -3179.38 0 731.423 -3179.17 0 2723.68 -3179.11 0 
-7159.79 -3162.38 0 731.353 -3162.17 0 2709.65 -3162.11 0 
-7164.94 -3145.38 0 731.284 -3145.17 0 2700.89 -3151.5 0 
2695.61 -3145.11 0 -7170.09 -3128.38 0 731.214 -3128.16 0 
2681.58 -3128.11 0 -7175.23 -3111.38 0 731.144 -3111.16 0 
2667.54 -3111.11 0 -7178.38 -3101 0 -7180.38 -3094.38 0 
731.074 -3094.16 0 2663.89 -3106.69 0 2653.5 -3094.11 0 
-7185.53 -3077.38 0 731.005 -3077.16 0 2639.47 -3077.11 0 
-7190.68 -3060.37 0 730.935 -3060.16 0 2626.89 -3061.87 0 
2625.43 -3060.11 0 -7195.83 -3043.37 0 730.865 -3043.16 0 
2615.32 -3043.11 0 -7200.97 -3026.37 0 730.795 -3026.16 0 
2613.15 -3026.11 0 -7206.12 -3009.37 0 730.726 -3009.16 0 
2616.59 -3009.11 0 -7211.27 -2992.37 0 730.656 -2992.16 0 
2620.03 -2992.11 0 -7215.37 -2978.83 0 -7216.42 -2975.37 0 
730.586 -2975.16 0 2623.47 -2975.1 0 -7221.57 -2958.37 0 
731.133 -2958.15 0 2626.9 -2958.15 0 2626.91 -2958.1 0 
-7226.71 -2941.37 0 732.84 -2941.15 0 2630.35 -2941.1 0 
-7231.86 -2924.37 0 734.546 -2924.15 0 2633.78 -2924.1 0 
-7237.01 -2907.37 0 736.253 -2907.15 0 2637.22 -2907.1 0 
-7242.16 -2890.37 0 737.96 -2890.15 0 2640.66 -2890.1 0 
-7247.31 -2873.36 0 739.666 -2873.15 0 2644.1 -2873.1 0 
-7252.36 -2856.66 0 -7252.45 -2856.36 0 739.851 -2871.3 0 
741.373 -2856.15 0 2647.54 -2856.1 0 -7257.6 -2839.36 0 
743.079 -2839.15 0 2650.98 -2839.1 0 -7262.75 -2822.36 0 
744.786 -2822.15 0 2654.42 -2822.09 0 -7267.9 -2805.36 0 
746.492 -2805.14 0 2657.86 -2805.09 0 -7273.04 -2788.36 0 
748.199 -2788.14 0 2661.29 -2788.09 0 -7278.19 -2771.36 0 
749.905 -2771.14 0 2663.91 -2775.17 0 2664.73 -2771.09 0 
-7283.34 -2754.36 0 751.612 -2754.14 0 2668.17 -2754.09 0 
-7288.49 -2737.36 0 753.318 -2737.14 0 2671.61 -2737.09 0 
-7289.36 -2734.49 0 -7293.64 -2720.36 0 755.025 -2720.14 0 
2675.05 -2720.09 0 -7298.78 -2703.36 0 756.731 -2703.14 0 
2678.49 -2703.09 0 -7303.93 -2686.36 0 758.438 -2686.14 0 
2681.93 -2686.09 0 -7309.08 -2669.35 0 -1073.19 -2681.88 0 
-1089.66 -2669.19 0 -1036.19 -2679.22 0 -999.184 -2676.57 0 
-962.183 -2673.91 0 -925.182 -2671.25 0 -896.357 -2669.18 0 
756.727 -2669.14 0 2685.37 -2669.08 0 -7314.23 -2652.35 0 
-1102.26 -2652.19 0 -888.181 -2668.59 0 -851.18 -2665.94 0 
-814.179 -2663.28 0 -777.177 -2660.62 0 -740.176 -2657.96 0 
-703.175 -2655.31 0 -666.174 -2652.65 0 -664.091 -2652.17 0 
752.481 -2652.14 0 2688.8 -2652.08 0 -7319.38 -2635.35 0 
-1110.19 -2640.73 0 -1114.02 -2635.19 0 -629.172 -2643.2 0 
-608.328 -2635.17 0 750.244 -2635.13 0 2692.24 -2635.08 0 
-7324.52 -2618.35 0 -1125.78 -2618.18 0 -592.171 -2628.95 0 
-564.207 -2618.17 0 747.754 -2618.13 0 2695.68 -2618.08 0 
-7326.35 -2612.32 0 -7329.67 -2601.35 0 -1137.54 -2601.18 0 
-555.169 -2614.69 0 -520.086 -2601.17 0 741.024 -2601.13 0 
2699.12 -2601.08 0 -7334.82 -2584.35 0 -1147.18 -2587.25 0 
-1149.3 -2584.18 0 -518.167 -2600.43 0 -481.165 -2586.17 0 
-475.965 -2584.16 0 732.949 -2584.13 0 739.867 -2598.21 0 
2700.92 -2592.18 0 2702.56 -2584.08 0 -7339.97 -2567.35 0 
-1161.06 -2567.18 0 -444.163 -2571.91 0 -431.844 -2567.16 0 
727.62 -2567.13 0 2706 -2567.08 0 -7345.12 -2550.35 0 
-1172.82 -2550.18 0 -407.161 -2557.65 0 -387.722 -2550.16 0 
720.833 -2550.13 0 2709.44 -2550.08 0 -7350.26 -2533.35 0 
-1184.18 -2533.76 0 -1184.58 -2533.18 0 -370.16 -2543.39 0 
-343.601 -2533.16 0 714.102 -2533.13 0 2712.88 -2533.08 0 
-7355.41 -2516.35 0 -1196.34 -2516.18 0 -333.158 -2529.13 0 
-299.479 -2516.16 0 707.372 -2516.13 0 2716.31 -2516.07 0 
-7360.56 -2499.35 0 -1208.1 -2499.18 0 -296.156 -2514.88 0 
-259.154 -2499.89 0 -257.407 -2499.15 0 700.642 -2499.13 0 
702.872 -2504.76 0 2719.75 -2499.07 0 -7363.35 -2490.14 0 
-7365.71 -2482.34 0 -1219.86 -2482.18 0 -222.152 -2484.39 0 
-216.821 -2482.15 0 693.911 -2482.13 0 1453.96 -2482.11 0 
1479.89 -2490.89 0 1502.9 -2482.11 0 2723.19 -2482.07 0 
-7370.85 -2465.34 0 -1221.18 -2480.28 0 -1231.62 -2465.18 0 
-185.15 -2468.88 0 -176.235 -2465.15 0 687.181 -2465.13 0 
1403.8 -2465.11 0 1405.89 -2465.82 0 1442.89 -2478.41 0 
1516.9 -2475.05 0 1536.62 -2465.1 0 2726.63 -2465.07 0 
-7376 -2448.34 0 -1243.38 -2448.18 0 -148.148 -2453.38 0 
-135.649 -2448.15 0 680.451 -2448.13 0 1353.86 -2448.11 0 
1368.89 -2453.23 0 1553.9 -2456.39 0 1570.33 -2448.1 0 
2730.07 -2448.07 0 -7381.15 -2431.34 0 -1255.14 -2431.18 0 
-111.146 -2437.88 0 -95.0631 -2431.15 0 673.72 -2431.12 0 
1303.91 -2431.11 0 1331.89 -2440.63 0 1590.9 -2437.73 0 
1604.04 -2431.1 0 2733.51 -2431.07 0 -7386.3 -2414.34 0 
-1258.18 -2426.79 0 -1266.9 -2414.18 0 -74.1445 -2422.38 0 
-54.4773 -2414.14 0 666.99 -2414.12 0 1268.81 -2414.11 0 
1294.89 -2428.04 0 1627.9 -2419.07 0 1637.75 -2414.1 0 
2736.95 -2414.07 0 -7391.45 -2397.34 0 -1278.66 -2397.18 0 
-37.1426 -2406.88 0 -32.7361 -2397.14 0 660.26 -2397.12 0 
665.876 -2411.31 0 1241.08 -2397.11 0 1257.89 -2407.39 0 
1664.9 -2400.4 0 1671.46 -2397.1 0 2737.93 -2409.2 0 
2740.39 -2397.07 0 -7396.59 -2380.34 0 -1290.42 -2380.17 0 
-27.5746 -2380.14 0 653.529 -2380.12 0 1213.3 -2380.11 0 
1220.89 -2384.75 0 1701.91 -2381.74 0 1705.18 -2380.09 0 
2743.82 -2380.07 0 -7400.34 -2367.97 0 -7401.74 -2363.34 0 
-1295.17 -2373.3 0 -1302.18 -2363.17 0 -24.2124 -2363.14 0 
646.799 -2363.12 0 1185.52 -2363.11 0 1738.89 -2363.09 0 
2747.26 -2363.06 0 -7406.89 -2346.34 0 -1313.94 -2346.17 0 
-20.8502 -2346.14 0 640.069 -2346.12 0 1157.73 -2346.11 0 
1183.89 -2362.11 0 1738.91 -2363.08 0 1772.6 -2346.09 0 
2750.7 -2346.06 0 -7412.04 -2329.34 0 -1325.7 -2329.17 0 
-17.488 -2329.14 0 633.338 -2329.12 0 1129.95 -2329.11 0 
[...]
POINT_DATA 19268
SCALARS Pressure double
LOOKUP_TABLE default
3.0914644417 3.0914644417 3.0914644417 3.0914644417 3.0914644417 3.0914644417 3.0914644417 3.0914644417 3.0914644417 
3.0914644417 3.0914644417 3.0914644417 3.0914644417 3.0914644417 3.0914644417 3.0914644417 3.0914644417 3.0914644417 
3.0914644417 3.0914644417 3.0914644417 3.0914644417 3.0914644417 3.0914644417 3.0914644417 3.0914644417 3.0914644417 
3.0914644417 3.0914644417 3.0914644417 3.0914644417 3.0914644417 3.0914644417 3.0914644417 3.0914644417 3.0914644417 
3.0914644417 3.0914644417 3.0914644417 3.0914644417 3.0914644417 3.0914644417 3.0914644417 3.0914644417 3.0914644417 
3.0914644417 3.0914644417 3.0914644417 3.0914644417 3.0914644417 3.0914644417 3.0914644417 3.0914644417 3.0914644417 
3.0914644417 3.0914644417 3.0914644417 3.0914644417 3.0914644417 3.0914644417 3.0914644417 3.0914644417 3.0914644417 
3.0914644417 3.0914644417 3.0914644417 3.0914644417 3.0914644417 3.0914644417 3.0914644417 3.0914644417 3.0914644417 
3.0914644417 3.0914644417 3.0914644417 3.0914644417 3.0914644417 3.0914644417 3.0914644417 3.0914644417 3.0914644417 
3.0914644417 3.0914644417 3.0914644417 3.0914644417 3.0914644417 3.0914644417 3.0914644417 3.0914644417 3.0914644417 
3.0914644417 3.0914644417 3.0914644417 3.0914644417 3.0914644417 3.0914644417 3.0914644417 3.0914644417 3.0914644417 
3.0914644417 3.0914644417 3.0914644417 3.0914644417 3.0914644417 3.0914644417 3.0914644417 3.0914644417 3.0914644417 
3.0914644417 3.0914644417 3.0914644417 3.0914644417 3.0914644417 3.0914644417 3.0914644417 3.0914644417 3.0914644417 
3.0914644417 3.0914644417 3.0914644417 3.0914644417 3.0914644417 3.0914644417 3.0914644417 3.0914644417 3.0914644417 
3.0914644417 3.0914644417 3.0914644417 3.0914644417 3.0914644417 3.0914644417 3.0914644417 3.0914644417 3.0914644417 
3.0914644417 3.0914644417 3.0914644417 3.0914644417 3.0914644417 3.0914644417 3.0914644417 3.0914644417 3.0914644417 
3.0914644417 3.0914644417 3.0914644417 3.0914644417 3.0914644417 3.0914644417 3.0914644417 3.0914644417 3.0914644417 
3.0914644417 3.0914644417 3.0914644417 3.0914644417 3.0914644417 3.0914644417 3.0914644417 3.0914644417 3.0914644417 
3.0914644417 3.0914644417 3.0914644417 3.0914644417 3.0914644417 3.0914644417 3.0914644417 3.0914644417 3.0914644417 
3.0914644417 3.0914644417 3.0914644417 3.0914644417 3.0914644417 3.0914644417 3.0914644417 3.0914644417 3.0914644417 
3.0914644417 3.0914644417 3.0914644417 3.0914644417 3.0914644417 3.0914644417 3.0914644417 3.0914644417 3.0914644417 
3.0914644417 3.0914644417 3.0914644417 3.0914644417 3.0914644417 3.0914644417 3.0914644417 3.0914644417 3.0914644417 
3.0914644417 3.0914644417 3.0914644417 3.0914644417 3.0914644417 3.0914644417 3.0914644417 3.0914644417 3.0914644417 
3.0914644417 3.0914644417 3.0914644417 3.0914644417 3.0914644417 3.0914644417 3.0914644417 3.0914644417 3.0914644417 
3.0914644417 3.0914644417 3.0914644417 3.0914644417 3.0914644417 3.0914644417 3.0914644417 3.0914644417 3.0914644417 
3.0914644417 3.0914644417 3.0914644417 3.0914644417 3.0914644417 3.0914644417 3.0914644417 3.0914644417 3.0914644417 
3.0914644417 3.0914644417 3.0914644417 3.0914644417 3.0914644417 3.0914644417 3.0914644417 3.0914644417 3.0914644417 
3.0914644417 3.0914644417 3.0914644417 3.0914644417 3.0914644417 3.0914644417 3.0914644417 3.0914644417 3.0914644417 
3.0914644417 3.0914644417 3.0914644417 3.0914644417 3.0914644417 3.0914644417 3.0914644417 3.0914644417 3.0914644417 
3.0914644417 3.0914644417 3.0914644417 3.0914644417 3.0914644417 3.0914644417 3.0914644417 3.0914644417 3.0914644417 
3.0914644417 3.0914644417 3.0914644417 3.0914644417 3.0914644417 3.0914644417 3.0914644417 3.0914644417 3.0914644417 
3.0914644417 3.0914644417 3.0914644417 3.0914644417 3.0914644417 3.0914644417 3.0914644417 3.0914644417 3.0914644417 
3.0914644417 3.0914644417 3.0914644417 3.0914644417 3.0914644417 3.0914644417 3.0914644417 3.0914644417 3.0914644417 
3.0914644417 3.0914644417 3.0914644417 3.0914644417 3.0914644417 3.0914644417 3.0914644417 3.0914644417 3.0914644417 
3.0914644417 3.0914644417 3.0914644417 3.0914644417 3.0914644417 3.0914644417 3.0914644417 3.0914644417 3.0914644417 
3.0914644417 3.0914644417 3.0914644417 3.0914644417 3.0914644417 3.0914644417 3.0914644417 3.0914644417 3.0914644417 
3.0914644417 3.0914644417 3.0857518459 3.0857518459 3.0857518459 3.0857518459 3.0857518459 3.0857518459 3.0857518459 
3.0914644417 3.0914644417 3.0914644417 3.0857518459 3.0857518459 3.0857518459 3.0857518459 3.0857518459 3.0857518459 
3.0857518459 3.0857518459 3.0857518459 3.0914644417 3.0914644417 3.0914644417 3.0857518459 3.0857518459 3.0857518459 
3.0857518459 3.0914644417 3.0914644417 3.0914644417 3.0857518459 3.0857518459 3.0857518459 3.0914644417 3.0914644417 
3.0914644417 3.0914644417 3.0857518459 3.0857518459 3.0857518459 3.0914644417 3.0914644417 3.0914644417 3.0857518459 
3.0857518459 3.0857518459 3.0857518459 3.0857518459 3.0914644417 3.0914644417 3.0914644417 3.0914644417 3.0914644417 
3.0857518459 3.0857518459 3.0857518459 3.0914644417 3.0914644417 3.0914644417 3.0857518459 3.0857518459 3.0857518459 
3.0914644417 3.0914644417 3.0914644417 3.0857518459 3.0857518459 3.0857518459 3.0857518459 3.0914644417 3.0914644417 
3.0914644417 3.0857518459 3.0857518459 3.0857518459 3.0914644417 3.0914644417 3.0914644417 3.0857518459 3.0857518459 
3.0857518459 3.0857518459 3.0914644417 3.0914644417 3.0914644417 3.0914644417 3.0914644417 3.0857518459 3.0857518459 
3.0857518459 3.0914644417 3.0971770375 3.0971770375 3.0971770375 3.0914644417 3.0914644417 3.0857518459 3.0857518459 
3.0857518459 3.0857518459 3.0914644417 3.0971770375 3.0971770375 3.0971770375 3.0971770375 3.0971770375 3.0914644417 
3.0914644417 3.0857518459 3.0857518459 3.0857518459 3.0914644417 3.0971770375 3.0971770375 3.0971770375 3.0971770375 
3.0914644417 3.0914644417 3.0857518459 3.0857518459 3.0857518459 3.0914644417 3.0971770375 3.0971770375 3.0971770375 
3.0971770375 3.0914644417 3.0914644417 3.0857518459 3.0857518459 3.0857518459 3.0857518459 3.0914644417 3.0971770375 
3.0971770375 3.0971770375 3.0971770375 3.0914644417 3.0914644417 3.0857518459 3.0857518459 3.0857518459 3.0914644417 
3.0914644417 3.0971770375 3.0971770375 3.0971770375 3.0971770375 3.0914644417 3.0914644417 3.0914644417 3.0857518459 
3.0857518459 3.0914644417 3.0971770375 3.0971770375 3.0971770375 3.0971770375 3.0914644417 3.0914644417 3.0914644417 
3.0857518459 3.0857518459 3.0857518459 3.0914644417 3.0971770375 3.0971770375 3.0914644417 3.0914644417 3.0857518459 
3.0857518459 3.0914644417 3.0971770375 3.0971770375 3.0971770375 3.0971770375 3.0914644417 3.0914644417 3.0857518459 
3.0857518459 3.0914644417 3.0971770375 3.0971770375 3.0971770375 3.0971770375 3.0914644417 3.0914644417 3.0857518459 
3.0857518459 3.0857518459 3.0914644417 3.0914644417 3.0971770375 3.0971770375 3.0971770375 3.0971770375 3.0914644417 
3.0914644417 3.0857518459 3.0857518459 3.0914644417 3.0971770375 3.0971770375 3.0971770375 3.0971770375 3.0914644417 
3.0914644417 3.0857518459 3.0857518459 3.0914644417 3.0971770375 3.0971770375 3.0971770375 3.0971770375 3.0971770375 
3.0914644417 3.0914644417 3.0857518459 3.0857518459 3.0857518459 3.0914644417 3.0971770375 3.0971770375 3.0971770375 
3.0914644417 3.0914644417 3.0914644417 3.0857518459 3.0857518459 3.0914644417 3.0971770375 3.0971770375 3.0971770375 
3.0914644417 3.0914644417 3.0857518459 3.0857518459 3.0857518459 3.0914644417 3.0971770375 3.0971770375 3.0971770375 
3.0914644417 3.0914644417 3.0857518459 3.0857518459 3.0857518459 3.0914644417 3.0914644417 3.0971770375 3.0971770375 
3.0971770375 3.0914644417 3.0914644417 3.0857518459 3.0857518459 3.0914644417 3.0971770375 3.0971770375 3.0914644417 
3.0914644417 3.0914644417 3.0857518459 3.0857518459 3.0914644417 3.0971770375 3.0971770375 3.0914644417 3.0914644417 
3.0857518459 3.0857518459 3.0857518459 3.0914644417 3.0971770375 3.0971770375 3.0914644417 3.0914644417 3.0857518459 
3.0857518459 3.0914644417 3.0971770375 3.0971770375 3.0971770375 3.0914644417 3.0914644417 3.0857518459 3.0857518459 
3.0857518459 3.0914644417 3.0971770375 3.0971770375 3.0914644417 3.0914644417 3.0914644417 3.0857518459 3.0857518459 
3.0857518459 3.0914644417 3.0971770375 3.0971770375 3.0971770375 3.0914644417 3.0914644417 3.0857518459 3.0857518459 
3.0914644417 3.0971770375 3.0971770375 3.0971770375 3.0914644417 3.0914644417 3.0857518459 3.0857518459 3.0857518459 
3.0914644417 3.0971770375 3.0971770375 3.0914644417 3.0914644417 3.0914644417 3.0857518459 3.0857518459 3.0914644417 
3.0971770375 3.0971770375 3.0914644417 3.0914644417 3.0857518459 3.0857518459 3.0914644417 3.0971770375 3.0971770375 
3.0971770375 3.0914644417 3.0914644417 3.0857518459 3.0857518459 3.0857518459 3.0914644417 3.0971770375 3.0971770375 
3.0914644417 3.0914644417 3.0857518459 3.0857518459 3.0857518459 3.0914644417 3.0971770375 3.0971770375 3.0914644417 
3.0914644417 3.0914644417 3.0857518459 3.0857518459 3.0914644417 3.0971770375 3.0971770375 3.0971770375 3.0914644417 
3.0857518459 3.0857518459 3.0857518459 3.0857518459 3.0857518459 3.0857518459 3.0914644417 3.0857518459 3.0857518459 
3.0857518459 3.0914644417 3.0971770375 3.0971770375 3.0914644417 3.0857518459 3.0857518459 3.0857518459 3.0857518459 
3.0914644417 3.0857518459 3.0857518459 3.0914644417 3.0971770375 3.0971770375 3.0914644417 3.0857518459 3.0857518459 
3.0857518459 3.0914644417 3.0857518459 3.0857518459 3.0857518459 3.0857518459 3.0914644417 3.0971770375 3.0971770375 
3.0971770375 3.0971770375 3.0914644417 3.0857518459 3.0857518459 3.0857518459 3.0914644417 3.0857518459 3.0857518459 
3.0914644417 3.0971770375 3.1028896334 3.1028896334 3.1028896334 3.1028896334 3.1028896334 3.1028896334 3.1028896334 
3.1028896334 3.1028896334 3.1028896334 3.1028896334 3.0971770375 3.0914644417 3.0857518459 3.0857518459 3.0857518459 
3.0914644417 3.0857518459 3.0857518459 3.0914644417 3.0971770375 3.1028896334 3.1028896334 3.1028896334 3.1028896334 
3.1028896334 3.1028896334 3.0971770375 3.0914644417 3.0857518459 3.0857518459 3.0857518459 3.0857518459 3.0914644417 
3.0857518459 3.0857518459 3.0857518459 3.0857518459 3.0914644417 3.0971770375 3.1028896334 3.1028896334 3.1028896334 
3.0971770375 3.0971770375 3.0914644417 3.0857518459 3.0857518459 3.0857518459 3.0914644417 3.0857518459 3.0857518459 
3.0914644417 3.0914644417 3.0971770375 3.1028896334 3.1028896334 3.1028896334 3.0971770375 3.0914644417 3.0857518459 
3.0857518459 3.0857518459 3.0914644417 3.0857518459 3.0857518459 3.0914644417 3.0971770375 3.1028896334 3.1028896334 
3.1028896334 3.0971770375 3.0914644417 3.0857518459 3.0857518459 3.0857518459 3.0914644417 3.0857518459 3.0857518459 
3.0914644417 3.0971770375 3.0971770375 3.1028896334 3.1028896334 3.1028896334 3.1028896334 3.0971770375 3.0971770375 
3.0914644417 3.0857518459 3.0857518459 3.0857518459 3.0857518459 3.0914644417 3.0914644417 3.0857518459 3.0857518459 
3.0857518459 3.0857518459 3.0914644417 3.0971770375 3.1028896334 3.1028896334 3.1028896334 3.0971770375 3.0914644417 
3.0857518459 3.0857518459 3.0857518459 3.0914644417 3.0857518459 3.0857518459 3.0914644417 3.0971770375 3.1028896334 
3.1028896334 3.1028896334 3.0971770375 3.0914644417 3.0857518459 3.0857518459 3.0857518459 3.0857518459 3.0914644417 
3.0857518459 3.0857518459 3.0914644417 3.0971770375 3.1028896334 3.1028896334 3.0971770375 3.0914644417 3.0914644417 
3.0857518459 3.0857518459 3.0857518459 3.0914644417 3.0857518459 3.0857518459 3.0914644417 3.0971770375 3.1028896334 
3.1028896334 3.0971770375 3.0914644417 3.0857518459 3.0857518459 3.0857518459 3.0857518459 3.0914644417 3.0857518459 
3.0857518459 3.0857518459 3.0914644417 3.0971770375 3.1028896334 3.1028896334 3.1028896334 3.1028896334 3.0971770375 
3.0914644417 3.0857518459 3.0857518459 3.0857518459 3.0857518459 3.0857518459 3.0914644417 3.0857518459 3.0857518459 
3.0914644417 3.0971770375 3.0971770375 3.1028896334 3.1028896334 3.0971770375 3.0914644417 3.0857518459 3.0857518459 
3.0857518459 3.0914644417 3.0914644417 3.0857518459 3.0857518459 3.0800392501 3.0800392501 3.0800392501 3.0857518459 
3.0914644417 3.0971770375 3.1028896334 3.1028896334 3.0971770375 3.0914644417 3.0857518459 3.0857518459 3.0857518459 
3.0857518459 3.0914644417 3.0857518459 3.0800392501 3.0800392501 3.0800392501 3.0800392501 3.0857518459 3.0857518459 
3.0914644417 3.0971770375 3.1028896334 3.1028896334 3.1028896334 3.1028896334 3.0971770375 3.0914644417 3.0857518459 
3.0857518459 3.0857518459 3.0857518459 3.0914644417 3.0857518459 3.0800392501 3.0800392501 3.0800392501 3.0800392501 
3.0857518459 3.0914644417 3.0971770375 3.1028896334 3.1028896334 3.0971770375 3.0914644417 3.0857518459 3.0857518459 
3.0857518459 3.0857518459 3.0914644417 3.0857518459 3.0800392501 3.0800392501 3.0800392501 3.0800392501 3.0800392501 
3.0857518459 3.0914644417 3.0971770375 3.1028896334 3.1028896334 3.0971770375 3.0914644417 3.0857518459 3.0857518459 
3.0914644417 3.0857518459 3.0800392501 3.0800392501 3.0800392501 3.0800392501 3.0857518459 3.0914644417 3.0971770375 
3.1028896334 3.1028896334 3.1028896334 3.0971770375 3.0914644417 3.0857518459 3.0857518459 3.0857518459 3.0914644417 
3.0857518459 3.0800392501 3.0800392501 3.0800392501 3.0800392501 3.0857518459 3.0914644417 3.0971770375 3.0971770375 
3.1028896334 3.1028896334 3.1028896334 3.0971770375 3.0914644417 3.0857518459 3.0857518459 3.0857518459 3.0857518459 
3.0914644417 3.0857518459 3.0857518459 3.0800392501 3.0800392501 3.0800392501 3.0800392501 3.0800392501 3.0857518459 
3.0857518459 3.0914644417 3.0971770375 3.1028896334 3.1028896334 3.0971770375 3.0914644417 3.0857518459 3.0857518459 
3.0914644417 3.0914644417 3.0857518459 3.0800392501 3.0800392501 3.0800392501 3.0800392501 3.0857518459 3.0914644417 
3.0971770375 3.1028896334 3.1028896334 3.0971770375 3.0914644417 3.0857518459 3.0857518459 3.0857518459 3.0914644417 
3.0857518459 3.0800392501 3.0800392501 3.0800392501 3.0800392501 3.0857518459 3.0914644417 3.0971770375 3.1028896334 
3.1028896334 3.1028896334 3.0971770375 3.0914644417 3.0857518459 3.0857518459 3.0914644417 3.0857518459 3.0800392501 
3.0800392501 3.0800392501 3.0857518459 3.0914644417 3.0971770375 3.0971770375 3.1028896334 3.1028896334 3.0971770375 
3.0914644417 3.0857518459 3.0857518459 3.0857518459 3.0857518459 3.0914644417 3.0857518459 3.0800392501 3.0800392501 
3.0800392501 3.0800392501 3.0857518459 3.0914644417 3.0971770375 3.1028896334 3.1028896334 3.0971770375 3.0914644417 
3.0857518459 3.0857518459 3.0914644417 3.0857518459 3.0800392501 3.0800392501 3.0857518459 3.0914644417 3.0971770375 
3.1028896334 3.1086022292 3.1086022292 3.1086022292 3.1086022292 3.1086022292 3.1086022292 3.1086022292 3.1086022292 
3.1086022292 3.1086022292 3.1086022292 3.1028896334 3.1028896334 3.0971770375 3.0914644417 3.0857518459 3.0857518459 
3.0857518459 3.0914644417 3.0857518459 3.0857518459 3.0800392501 3.0800392501 3.0857518459 3.0914644417 3.0971770375 
3.1028896334 3.1086022292 3.1086022292 3.1086022292 3.1028896334 3.0971770375 3.0914644417 3.0857518459 3.0857518459 
3.0857518459 3.0914644417 3.0914644417 3.0857518459 3.0800392501 3.0800392501 3.0800392501 3.0857518459 3.0914644417 
3.0971770375 3.1028896334 3.1028896334 3.1086022292 3.1086022292 3.1086022292 3.1028896334 3.0971770375 3.0914644417 
3.0857518459 3.0857518459 3.0857518459 3.0914644417 3.0857518459 3.0800392501 3.0800392501 3.0800392501 3.0857518459 
3.0914644417 3.0971770375 3.1028896334 3.1086022292 3.1086022292 3.1086022292 3.1028896334 3.0971770375 3.0914644417 
3.0857518459 3.0857518459 3.0857518459 3.0914644417 3.0857518459 3.0800392501 3.0800392501 3.0857518459 3.0914644417 
3.0914644417 3.0971770375 3.1028896334 3.1086022292 3.1086022292 3.1086022292 3.1028896334 3.0971770375 3.0971770375 
3.0914644417 3.0857518459 3.0857518459 3.0914644417 3.0857518459 3.0800392501 3.0800392501 3.0800392501 3.0857518459 
3.0914644417 3.0971770375 3.1028896334 3.1086022292 3.1086022292 3.1086022292 3.1028896334 3.1028896334 3.0971770375 
3.0914644417 3.0857518459 3.0857518459 3.0914644417 3.0857518459 3.0800392501 3.0800392501 3.0857518459 3.0914644417 
3.0971770375 3.1028896334 3.1028896334 3.1086022292 3.1086022292 3.1086022292 3.1028896334 3.0971770375 3.0914644417 
3.0857518459 3.0857518459 3.0857518459 3.0914644417 3.0857518459 3.0800392501 3.0800392501 3.0800392501 3.0857518459 
3.0914644417 3.0971770375 3.0971770375 3.1028896334 3.1086022292 3.1086022292 3.1086022292 3.1028896334 3.0971770375 
3.0914644417 3.0857518459 3.0857518459 3.0857518459 3.0914644417 3.0857518459 3.0800392501 3.0800392501 3.0800392501 
3.0857518459 3.0914644417 3.0971770375 3.1028896334 3.1086022292 3.1086022292 3.1086022292 3.1028896334 3.0971770375 
3.0914644417 3.0914644417 3.0857518459 3.0857518459 3.0914644417 3.0914644417 3.0857518459 3.0857518459 3.0800392501 
3.0800392501 3.0857518459 3.0914644417 3.0971770375 3.1028896334 3.1028896334 3.1086022292 3.1086022292 3.1086022292 
3.1028896334 3.0971770375 3.0914644417 3.0857518459 3.0857518459 3.0914644417 3.0857518459 3.0800392501 3.0800392501 
3.0800392501 3.0857518459 3.0914644417 3.0971770375 3.1028896334 3.1086022292 3.1086022292 3.1086022292 3.1028896334 
3.0971770375 3.0914644417 3.0857518459 3.0857518459 3.0857518459 3.0914644417 3.0857518459 3.0800392501 3.0800392501 
3.0800392501 3.0857518459 3.0914644417 3.0971770375 3.1028896334 3.1086022292 3.1086022292 3.1086022292 3.1028896334 
3.0971770375 3.0914644417 3.0857518459 3.0857518459 3.0857518459 3.0914644417 3.0857518459 3.0800392501 3.0800392501 
3.0857518459 3.0914644417 3.0971770375 3.1028896334 3.1028896334 3.1086022292 3.1086022292 3.1086022292 3.1028896334 
3.0971770375 3.0914644417 3.0857518459 3.0857518459 3.0914644417 3.0857518459 3.0800392501 3.0800392501 3.0800392501 
3.0857518459 3.0857518459 3.0914644417 3.0971770375 3.1028896334 3.1086022292 3.1086022292 3.1028896334 3.0971770375 
3.0914644417 3.0857518459 3.0857518459 3.0914644417 3.0857518459 3.0800392501 3.0800392501 3.0800392501 3.0857518459 
3.0914644417 3.0971770375 3.0971770375 3.1028896334 3.1086022292 3.1086022292 3.1086022292 3.1028896334 3.1028896334 
3.0971770375 3.0914644417 3.0857518459 3.0857518459 3.0857518459 3.0914644417 3.0914644417 3.0857518459 3.0800392501 
3.0800392501 3.0857518459 3.0914644417 3.0971770375 3.1028896334 3.1028896334 3.1086022292 3.1086022292 3.1028896334 
3.0971770375 3.0914644417 3.0857518459 3.0857518459 3.0857518459 3.0914644417 3.0857518459 3.0800392501 3.0800392501 
3.0857518459 3.0914644417 3.0971770375 3.1028896334 3.1086022292 3.1086022292 3.1086022292 3.1028896334 3.0971770375 
3.0914644417 3.0857518459 3.0857518459 3.0914644417 3.0857518459 3.0800392501 3.0800392501 3.0800392501 3.0800392501 
3.0857518459 3.0914644417 3.0971770375 3.1028896334 3.1086022292 3.114314825 3.114314825 3.114314825 3.114314825 
3.1086022292 3.1086022292 3.1028896334 3.0971770375 3.0971770375 3.0914644417 3.0857518459 3.0857518459 3.0914644417 
3.0857518459 3.0800392501 3.0800392501 3.0857518459 3.0914644417 3.0971770375 3.0971770375 3.1028896334 3.1086022292 
3.114314825 3.114314825 3.114314825 3.114314825 3.114314825 3.1086022292 3.1028896334 3.0971770375 3.0914644417 
3.0857518459 3.0857518459 3.0914644417 3.0857518459 3.0800392501 3.0800392501 3.0857518459 3.0914644417 3.0971770375 
3.1028896334 3.1028896334 3.1086022292 3.114314825 3.114314825 3.114314825 3.114314825 3.114314825 3.1086022292 
3.1028896334 3.0971770375 3.0914644417 3.0914644417 3.0857518459 3.0857518459 3.0857518459 3.0914644417 3.0857518459 
3.0857518459 3.0800392501 3.0800392501 3.0800392501 3.0857518459 3.0914644417 3.0971770375 3.1028896334 3.1086022292 
3.1086022292 3.114314825 3.114314825 3.114314825 3.114314825 3.1086022292 3.1086022292 3.1028896334 3.0971770375 
3.0914644417 3.0857518459 3.0857518459 3.0914644417 3.0857518459 3.0800392501 3.0800392501 3.0857518459 3.0914644417 
3.0971770375 3.1028896334 3.1086022292 3.114314825 3.114314825 3.114314825 3.1086022292 3.1028896334 3.0971770375 