# vtk DataFile Version 4.2
vtk output
ASCII
DATASET UNSTRUCTURED_GRID
POINTS 1740 double
2144.07 -94.44003 0 2911 0 0 16.54298 -37.82236 0 
5.09149 -21.30132 0 1.27433 -10.75385 0 0 0 0 
2.54575 15.14293 0 6.36291 23.76126 0 14.00014 34.89063 0 
30.50239 50.70793 0 33.39435 -52.93479 0 2050.91 -103.7862 0 
60.1465 -69.72165 0 88.83633 -83.2817 0 118.7656 -94.71113 0 
153.4168 -105.7022 0 199.5806 -117.771 0 261.4466 -130.7139 0 
345.846 -144.1892 0 460.3522 -157.0592 0 608.4185 -167.1903 0 
783.2313 -172.4016 0 941.0559 -172.4533 0 1063.409 -170.1096 0 
1164.153 -166.8746 0 1263.449 -162.682 0 1375.468 -156.8941 0 
1513.293 -148.414 0 1665.281 -137.5317 0 1791.864 -127.3721 0 
2195.451 -89.09491 0 2273.924 -80.67077 0 2383.731 -68.3513 0 
2517.64 -52.47337 0 2649.227 -35.9232 0 2740.773 -23.82991 0 
2804.387 -15.13419 0 2848.802 -8.916218 0 2881.944 -4.196067 0 
56.61447 67.79801 0 84.09687 81.25172 0 112.4783 92.48395 0 
142.1748 102.3504 0 174.8563 111.6168 0 213.124 120.8806 0 
260.3759 130.5151 0 324.6539 141.1779 0 418.1422 152.9178 0 
535.6656 162.9871 0 690.9154 170.4255 0 902.6513 172.7852 0 
1100.32 169.0517 0 1270.99 162.3262 0 1462.794 151.6837 0 
1631.287 140.0952 0 1747.993 131 0 1922.788 115.9027 0 
2069.56 101.951 0 2128.804 96.0021 0 2297.147 78.11721 0 
2414.379 64.80104 0 2554.023 47.99319 0 2673.693 32.73885 0 
2757.97 21.50315 0 2814.297 13.7575 0 2852.02 8.460961 0 
2882.272 4.148909 0 1791.052 127.4402 0 1366.894 157.3738 0 
1444.38 -152.8302 0 1547.039 146.1296 0 1589.287 -143.1614 0 
1878.731 119.8675 0 1997.072 108.9828 0 1185.654 166.0472 0 
1882.536 -119.5292 0 1971.323 -111.4145 0 1684.777 136.0292 0 
2099.317 -98.9855 0 2234.809 84.9091 0 2181.695 90.53914 0 
1728.573 -132.5703 0 1718.815 133.3509 0 1834.825 123.7132 0 
1960.305 112.4444 0 2033.69 105.4648 0 2099.184 98.99892 0 
2214.291 -73.565686825 396.8421 2955.512 16.982229117 396.8421 158.0786 -29.466432216 396.8421 
147.0109 -13.644975615 396.8421 143.3217 -3.52236244 396.8421 142.09 6.8145145846 396.8421 
144.5505 21.397014776 396.8421 148.2398 29.71089189 396.8421 155.621 40.463686255 396.8421 
171.5701 55.780215789 396.8421 174.3652 -43.898825147 396.8421 2124.254 -82.727997166 396.8421 
200.2206 -59.879334413 396.8421 227.9488 -72.742711469 396.8421 256.8748 -83.548023089 396.8421 
290.3647 -93.901153987 396.8421 334.981 -105.21722459 396.8421 394.7733 -117.27385009 396.8421 
476.3434 -129.69985026 396.8421 587.0114 -141.35722274 396.8421 730.1145 -150.18358179 396.8421 
899.0676 -154.14487993 396.8421 1051.602 -153.28674061 396.8421 1169.853 -150.36173476 396.8421 
1267.221 -146.72275743 396.8421 1363.188 -142.19473908 396.8421 1471.452 -136.10039781 396.8421 
1604.657 -127.34589187 396.8421 1751.55 -116.29061484 396.8421 1873.891 -106.09126468 396.8421 
2263.949 -68.346416745 396.8421 2339.792 -60.14884582 396.8421 2445.918 -48.218242554 396.8421 
2575.338 -32.932622908 396.8421 2702.515 -17.0973805 396.8421 2790.992 -5.5830483922 396.8421 
2852.473 2.6693419568 396.8421 2895.4 8.5572497147 396.8421 2927.431 13.01991343 396.8421 
196.807 72.379926774 396.8421 223.3682 85.490110015 396.8421 250.7983 96.469163357 396.8421 
279.4994 106.14276967 396.8421 311.0855 115.25802478 396.8421 348.0705 124.40575973 396.8421 
393.7383 133.96652823 396.8421 455.8617 144.62319508 396.8421 546.2162 156.49905052 396.8421 
659.8003 166.91765343 396.8421 809.846 175.03403716 396.8421 1014.485 178.58340532 396.8421 
1205.528 176.13001654 396.8421 1370.477 170.57943484 396.8421 1555.851 161.2827606 396.8421 
1718.696 150.86331183 396.8421 1831.49 142.5560759 396.8421 2000.426 128.5863309 396.8421 
2142.278 115.51798759 396.8421 2199.537 109.90636949 396.8421 2362.236 92.910811722 396.8421 
2475.539 80.147697186 396.8421 2610.501 63.920485473 396.8421 2726.16 49.091260579 396.8421 
2807.613 38.112594381 396.8421 2862.05 30.518493233 396.8421 2898.509 25.314172525 396.8421 
2927.749 21.070618703 396.8421 1873.106 139.28059175 396.8421 1463.165 166.29943693 396.8421 
1538.054 -131.88532138 396.8421 1637.272 156.31658721 396.8421 1678.104 -121.98981181 396.8421 
1957.846 132.27393862 396.8421 2072.22 122.12169801 396.8421 1288 173.70783131 396.8421 
1961.524 -98.279204949 396.8421 2047.334 -90.243507557 396.8421 1770.393 147.16138824 396.8421 
2171.038 -78.015834909 396.8421 2301.989 99.385866662 396.8421 2250.655 104.73419994 396.8421 
1812.721 -111.29735666 396.8421 1803.29 144.7121606 396.8421 1915.411 135.83838871 396.8421 
2036.686 125.35985083 396.8421 2107.61 118.82200268 396.8421 2170.909 112.73607066 396.8421 
2284.511 -54.558219983 793.6842 3000.027 32.329402806 793.6842 299.6143 -19.993936107 793.6842 
288.9304 -4.8305578745 793.6842 285.3691 4.8898597726 793.6842 284.1801 14.830091231 793.6842 
286.5551 28.876257785 793.6842 290.1167 36.896970406 793.6842 297.2417 47.284898436 793.6842 
312.6379 62.111418485 793.6842 315.336 -33.791546478 793.6842 2197.597 -63.487973635 793.6842 
340.2947 -49.025848135 793.6842 367.0612 -61.250394545 793.6842 394.9839 -71.488264923 793.6842 
427.3123 -81.266422442 793.6842 470.3812 -91.911255549 793.6842 528.0998 -103.18835865 793.6842 
606.8411 -114.70853971 793.6842 713.6708 -125.34634155 793.6842 851.8104 -133.11569183 793.6842 
1014.904 -136.11599875 793.6842 1162.147 -134.60334339 793.6842 1276.298 -131.28906162 793.6842 
1370.288 -127.3992007 793.6842 1462.927 -122.68109938 793.6842 1567.436 -116.43691594 793.6842 
1696.021 -107.58714928 793.6842 1837.82 -96.536594107 793.6842 1955.917 -86.426852923 793.6842 
2332.447 -49.485675543 793.6842 2405.659 -41.537850361 793.6842 2508.105 -30.009901159 793.6842 
2633.037 -15.301674365 793.6842 2755.801 -0.12982333748 793.6842 2841.209 10.864546064 793.6842 
2900.561 18.726409111 793.6842 2941.997 24.32713854 793.6842 2972.917 28.567578699 793.6842 
336.9995 78.223190838 793.6842 362.6396 90.983717544 793.6842 389.1182 101.69763339 793.6842 
416.8239 111.16168548 793.6842 447.3145 120.10339329 793.6842 483.0167 129.10445575 793.6842 
527.1009 138.54818391 793.6842 587.0697 149.1316925 793.6842 674.2905 161.0321385 793.6842 
783.9349 171.64083855 793.6842 928.7766 180.1990511 793.6842 1126.317 184.58403644 793.6842 
1310.735 183.06288901 793.6842 1469.963 178.38539298 793.6842 1648.908 170.10597599 793.6842 
1806.105 160.58664759 793.6842 1914.987 152.89618841 793.6842 2078.064 139.82799479 793.6842 
2214.996 127.48715746 793.6842 2270.269 122.1598947 793.6842 2427.326 105.93873875 793.6842 
2536.699 93.682658179 793.6842 2666.98 78.021778239 793.6842 2778.628 63.643403821 793.6842 
2857.255 52.962383441 793.6842 2909.806 45.557868493 793.6842 2945.001 40.476295154 793.6842 
2973.224 36.328719447 793.6842 1955.16 149.84562318 793.6842 1559.437 174.61132247 793.6842 
1631.729 -112.16214344 793.6842 1727.505 165.59041751 793.6842 1766.921 -102.21927708 793.6842 
2036.96 143.29144676 793.6842 2147.368 133.73538011 793.6842 1390.347 181.07160733 793.6842 
2040.511 -78.726403397 793.6842 2123.346 -70.838518464 793.6842 1856.009 157.1685096 793.6842 
2242.759 -58.8912866 793.6842 2369.167 112.13309957 793.6842 2319.614 117.23654015 793.6842 
1896.869 -91.578536483 793.6842 1887.765 154.89896482 793.6842 1995.998 146.63037127 793.6842 
2113.066 136.79039418 793.6842 2181.531 130.61626735 793.6842 2242.634 124.84813993 793.6842 
2354.732 -37.168317649 1190.526 3044.539 46.191651955 1190.526 441.15 -9.8034995061 1190.526 
430.8497 4.7352924514 1190.526 427.4164 14.071505318 1190.526 426.2701 23.630964182 1190.526 
428.5601 37.159071718 1190.526 431.9934 44.894803494 1190.526 438.8627 54.925943636 1190.526 
453.7057 69.268563581 1190.526 456.3069 -23.003456438 1190.526 2270.94 -45.827358522 1190.526 
480.3688 -37.541198543 1190.526 506.1737 -49.174831978 1190.526 533.0934 -58.892273109 1190.526 
564.26 -68.147657077 1190.526 605.7815 -78.188489689 1190.526 661.4265 -88.773595591 1190.526 
737.3385 -99.504889027 1190.526 840.33 -109.27843167 1190.526 973.5064 -116.1877768 1190.526 
1130.74 -118.45394881 1190.526 1272.693 -116.48437086 1190.526 1382.742 -112.92837028 1190.526 
1473.356 -108.904667 1190.526 1562.666 -104.10715416 1190.526 1663.42 -97.831513783 1190.526 
1787.385 -89.022092083 1190.526 1924.09 -78.110396665 1190.526 2037.944 -68.188112695 1190.526 
2400.946 -32.259217111 1190.526 2471.527 -24.580577645 1190.526 2570.292 -13.46916343 1190.526 
2690.735 0.66711643708 1190.526 2809.091 15.206697539 1190.526 2891.43 25.718969645 1190.526 
2948.647 33.224847376 1190.526 2988.597 38.56661829 1190.526 3018.403 42.608209461 1190.526 
477.1918 84.890983829 1190.526 501.9109 97.293723388 1190.526 527.4382 107.72998565 1190.526 
554.1485 116.96818053 1190.526 583.5435 125.71550655 1190.526 617.963 134.54263431 1190.526 
660.4633 143.83174282 1190.526 718.2775 154.28536928 1190.526 802.3645 166.11850873 1190.526 
908.0698 176.78884993 1190.526 1047.707 185.60247886 1190.526 1238.151 190.54895217 1190.526 
1415.942 189.69437793 1190.526 1569.449 185.66126696 1190.526 1741.965 178.15156495 1190.526 
1893.514 169.32960202 1190.526 1998.484 162.12679218 1190.526 2155.702 149.78864871 1190.526 
2287.714 138.05549857 1190.526 2341.001 132.97137612 1190.526 2492.415 117.4325393 1190.526 
2597.858 105.64335978 1190.526 2723.46 90.529268276 1190.526 2831.095 76.611539058 1190.526 
2906.899 66.250776461 1190.526 2957.56 59.058578561 1190.526 2991.49 54.118460353 1190.526 
3018.699 50.083929781 1190.526 2037.214 159.25638592 1190.526 1655.708 182.26765011 1190.526 
1725.403 -93.56633198 1190.526 1817.738 173.98311772 1190.526 1855.738 -83.71164454 1190.526 
2116.075 153.06852652 1190.526 2222.516 144.00441416 1190.526 1492.694 188.01916399 1190.526 
2119.498 -60.660609623 1190.526 2199.357 -52.972852346 1190.526 1941.625 166.13467003 1190.526 
2314.479 -41.367209305 1190.526 2436.346 123.37581774 1190.526 2388.573 128.26385054 1190.526 
1981.017 -73.238009434 1190.526 1972.24 164.0074476 1190.526 2076.584 156.2240625 1190.526 
[...]
POINT_DATA 1740
FIELD FieldData 1
Pressure 1 1740 double
3.1042201676 3.0191671331 3.009638109 2.9857893759 2.9791384581 2.9591934794 2.972095545 2.9892864327 3.0204907974 
3.0346050397 3.012136896 3.1082095388 3.0345177706 3.0491572072 3.0664504489 3.0669279166 3.0837259876 3.0886263702 
3.1103337186 3.1150537074 3.1342043075 3.1430026362 3.1447643884 3.1512261568 3.1449227927 3.1409884603 3.136835574 
3.1324622925 3.1253212716 3.1192558511 3.1016423586 3.0982927742 3.092872116 3.0848242091 3.0740611583 3.0640890805 
3.0542938225 3.0456219939 3.0372406126 3.0703839789 3.0817959552 3.0939054282 3.1065482627 3.1127272405 3.1192113907 
3.1262808196 3.1341368273 3.1495849549 3.1620608892 3.1778256477 3.188138515 3.195023407 3.2006777959 3.2062028095 
3.2104697083 3.2138572584 3.2146056594 3.1441257971 3.0992012331 3.090235376 3.0839163347 3.0748550285 3.0647915923 
3.0541455874 3.0434211059 3.0356287668 3.0340695592 3.213619319 3.2040377119 3.1352840711 3.2080212859 3.1286656476 
3.2142716093 3.2171337408 3.2021495922 3.1156121559 3.1117876726 3.2119735338 3.1060198451 3.094058527 3.0957528196 
3.1217899406 3.2135012789 3.2135498244 3.2149906868 3.2252150178 3.0969679515 3.1011233046 3.0236637306 3.0278998982 
3.0011466697 3.0074356157 2.9860063761 2.9922621984 3.0040219447 3.0337417832 3.0516711451 3.0369893564 3.105344141 
3.0572291883 3.0699880727 3.0830171729 3.0869086845 3.102555512 3.1119804478 3.1255909346 3.1304809064 3.141651314 
3.145629226 3.1493304303 3.1500500123 3.144140919 3.1392485753 3.1331795709 3.1285911647 3.1219134739 3.1163244274 
3.0987642078 3.0946806306 3.0892069508 3.081088756 3.0703920648 3.0604984507 3.0508494041 3.0433588229 3.028355282 
3.0845361184 3.1054558084 3.1168735734 3.1257395078 3.1345982963 3.1399449343 3.1450827269 3.1545581201 3.16667323 
3.1759241823 3.1844477612 3.1919955797 3.1986803668 3.2048994465 3.2077077498 3.2106318109 3.2141998382 3.2160362571 
3.094435671 3.0995120452 3.0922523211 3.0860118452 3.0773591026 3.0664305383 3.0560234323 3.0458040646 3.0390274138 
3.0396673115 3.2146126383 3.2063804256 3.1316947074 3.2106839747 3.1248674191 3.2159170934 3.218223636 3.2038995994 
3.1125142413 3.1087334 3.2125521565 3.1033071426 3.095555847 3.0979143796 3.1189301293 3.2133663026 3.2143610022 
3.216196713 3.1664457335 3.098388821 3.0986159923 3.0233241965 3.0278549929 3.0000549133 3.0006795442 2.9836142641 
2.9943488107 3.0086793488 3.0383242513 3.0590863607 3.0458124988 3.1027635131 3.0607198389 3.079730708 3.0975986142 
3.1033897581 3.1171465034 3.1252001125 3.1379054514 3.1436597053 3.1517153186 3.1541714971 3.1530718489 3.1510563678 
3.1431195845 3.1368563911 3.1305770866 3.125389199 3.119077381 3.1138365059 3.0963144751 3.092398782 3.0867681515 
3.0789846414 3.0681777276 3.0582432653 3.0492011666 3.0420943573 3.0288871249 3.0915578064 3.1130879362 3.1302629588 
3.1402518898 3.1523220238 3.1601254425 3.1693119587 3.1737191027 3.181994388 3.1918069425 3.1962867861 3.2014335638 
3.2046639252 3.211331364 3.2134821423 3.2142344296 3.2166397767 3.2192221753 3.0934880507 3.0947201821 3.0913642354 
3.0858100931 3.0776020216 3.0667404201 3.0566177261 3.0466495475 3.039472172 3.0407419685 3.2171632428 3.2126819926 
3.1286983247 3.2144981491 3.1219079819 3.2180782541 3.1936568873 3.2090353772 3.1100104753 3.1061896711 3.2150268388 
3.1008702275 3.0940441378 3.0952464717 3.1162733264 3.2155850406 3.21751247 3.2223047422 3.0894081694 3.0943716526 
3.0966006952 3.0231480456 3.0283258334 2.9996458678 3.0005407916 2.9820650995 2.9913464464 3.0061786177 3.0389967374 
3.0597572504 3.0464161811 3.1007068087 3.0665092997 3.0843774239 3.1042820993 3.1122984667 3.1252597206 3.1326475127 
3.1457936442 3.1523426546 3.1590817957 3.1593519373 3.1562944105 3.151298839 3.1421322057 3.1355628601 3.1291582965 
3.1231564938 3.1169191261 3.1115711041 3.0941547901 3.0905006364 3.0851440889 3.0774992817 3.0670025249 3.0572229437 
3.0486344313 3.0415768158 3.0292517614 3.0945787337 3.1180831516 3.1324642576 3.1447176613 3.1514011765 3.1627324715 
3.1750445674 3.1828937015 3.1909868405 3.2022019281 3.2072470035 3.2114216002 3.2129152192 3.2192588074 3.2210760816 
3.221278501 3.222658819 3.2262472178 3.0919426908 3.0927274093 3.0903727471 3.0848642056 3.0764788716 3.0660158653 
3.0561148853 3.0463774079 3.0390076472 3.0403858183 3.2227666727 3.2201536275 3.1267668669 3.221845687 3.119922213 
3.2228377321 3.0834570378 3.2165852126 3.1078278223 3.1040231933 3.2216434795 3.098748409 3.0924565717 3.0927747974 
3.1140653005 3.2217773724 3.2231952708 3.1262681186 3.0894861725 3.0925915772 3.0948733409 3.0225967791 3.0300876578 
2.9999163505 3.0032440468 2.9849728163 2.9924875545 3.0067783975 3.0402350199 3.0604618256 3.048490461 3.0990207788 
3.0703723864 3.0880036248 3.1057609226 3.1150952463 3.1282798899 3.138541365 3.149101292 3.1561563062 3.1633668016 
3.1623607028 3.157190751 3.1499260421 3.1404159872 3.1335688505 3.127139698 3.1211497812 3.1150933958 3.109651284 
3.0926785207 3.0889490679 3.0837877222 3.076277895 3.0660925228 3.0565586536 3.0482238932 3.0411002935 3.0294933971 
3.0952133421 3.1191288273 3.1334270804 3.1462546524 3.155381529 3.1665355829 3.1773883932 3.1828324823 3.1936193161 
3.2065250318 3.2153048433 3.2188155618 3.2209322247 3.2265703672 3.2284934115 3.2282567625 3.2294236817 3.1993110789 
3.0898514358 3.0902989807 3.0880917405 3.0827650828 3.0746211813 3.0644751573 3.0547670332 3.0452034786 3.0379300127 
3.0394516972 3.2295664441 3.2276710858 3.124847649 3.2286199791 3.1180190507 3.2277611791 3.0885316226 3.2242955737 
3.1059399524 3.1022343666 3.2286050192 3.0970744371 3.0901572454 3.090210154 3.1122208364 3.2287824385 3.2300115453 
3.0809205964 3.0901091018 3.0901828636 3.0935284873 3.0218942715 3.0310090475 3.0010327221 3.0036915172 2.9856750841 
2.9934706102 3.0077191858 3.040893537 3.0613910784 3.0506782068 3.0974561808 3.0727918849 3.0911720339 3.1077113465 
3.117481595 3.1308725188 3.141574481 3.153255935 3.1613644357 3.1671122587 3.1647294875 3.1574012065 3.147915077 
3.1386462169 3.1317199308 3.1254077575 3.1191427573 3.1133204863 3.1079137501 3.0912659517 3.0875792599 3.0825691141 
3.0751779197 3.0651945368 3.0557768422 3.0476180295 3.0404492402 3.0295980844 3.0955871695 3.1199113696 3.1343026441 
3.1472386634 3.1562476359 3.1679459697 3.1800978749 3.1867035236 3.1977662797 3.2107357148 3.2211270292 3.2263530437 
3.228699154 3.2348584467 3.236130353 3.235575885 3.2362030119 3.1014789711 3.0893689203 3.0889522994 3.0861161115 
3.0809964936 3.0731350878 3.0631089724 3.0534926571 3.04417786 3.0369185506 3.0385212193 3.2363839506 3.2355040113 
3.1229121501 3.2359449778 3.1161633898 3.2335447536 3.0890280571 3.2320293979 3.1042683418 3.1006984042 3.2354499466 
3.0955040738 3.0884073982 3.0885448208 3.1105014609 3.2356378053 3.2366386635 3.0857522837 3.08913422 3.0891630687 
3.0922641384 3.0211914052 3.0309764833 3.0012446743 3.0022672173 2.9850124641 2.9935669863 3.0077620478 3.0406642001 
3.0615595164 3.052007131 3.0961515459 3.0742780087 3.0932433743 3.1095313384 3.1196509816 3.1331811517 3.1445278777 
3.1560358422 3.1645030228 3.170190565 3.1663938756 3.1568355492 3.1456919449 3.1369349451 3.1300967275 3.1239190252 
3.1175003908 3.1118477735 3.1065316809 3.0900036085 3.0863877065 3.081503704 3.0742197039 3.0643857934 3.0550119887 
3.0469687547 3.0397477686 3.0295835094 3.0953559957 3.1199788019 3.1343405093 3.1473702022 3.1569166051 3.1686203927 
3.1808157144 3.1882119165 3.199612816 3.2137069399 3.2250874635 3.2319227602 3.2357864252 3.2424355145 3.2440610637 
3.2436417425 3.2436807077 3.088952939 3.0875475635 3.087263743 3.084260632 3.079338433 3.0717694732 3.0619153599 
3.0524925981 3.0432987588 3.036088826 3.0377902679 3.2437075605 3.243671084 3.1213506772 3.2441142147 3.1145912266 
3.2410327468 3.0870984364 3.2394966126 3.1029225789 3.0994296068 3.2433214147 3.0941328909 3.0863536971 3.0869661642 
3.109010991 3.2432824911 3.2438264666 3.0863423302 3.086957547 3.0872670921 3.0913548284 3.0205024598 3.0310516945 
3.0017057379 3.0017573827 2.9849050831 2.9936211999 3.007674072 3.0404857005 3.0613003693 3.0529852179 3.0951978798 
3.0752597038 3.0945939563 3.1107212977 3.1211588734 3.1348265335 3.14670884 3.1580614572 3.166764795 3.1724822988 
3.1673925882 3.1557132461 3.1437608977 3.1354592078 3.1287574382 3.1225762695 3.1161104324 3.1106699038 3.1054145737 
3.0890733039 3.0855202958 3.0807082149 3.0735127096 3.0637824742 3.0544156578 3.0464489102 3.0391633509 3.0296621739 
3.0948546122 3.1196925642 3.1340767722 3.1471190429 3.1567782366 3.168647094 3.1809374608 3.1890475653 3.2008173782 
3.2152991012 3.2276536844 3.2361377477 3.2413384016 3.2489724306 3.2515730513 3.251325058 3.2513755866 3.086732148 
3.0857579687 3.0854349388 3.082088076 3.0774971829 3.0701139395 3.0605268386 3.0513442605 3.0423486251 3.0351040665 
3.0371808375 3.2516144356 3.2509068236 3.1200294813 3.2515348254 3.1133196909 3.2500154855 3.0848495026 3.24548131 
3.1018581177 3.0984320744 3.2511149249 3.0932059859 3.0842296182 3.0850704366 3.1078789351 3.2510132848 3.2519476873 
3.084069166 3.0853069235 3.0854752975 3.0906932314 3.0201040645 3.0314022367 3.0022566007 3.0017516831 2.9848655217 
2.9939282468 3.007808258 3.0404877898 3.061109497 3.0535464489 3.0944489185 3.0760039752 3.0955731282 3.1115587399 
3.1222215743 3.136069309 3.1484003987 3.159661071 3.1684658128 3.1743232987 3.1681010326 3.1545380652 3.1425315871 
3.1345379696 3.127840081 3.1217656619 3.1152463488 3.1100252827 3.1047657549 3.0884517738 3.0850170352 3.0802666641 
3.0731400113 3.0634671066 3.0540632716 3.0461459798 3.0387983158 3.0297346084 3.0944141592 3.1193737972 3.1336881251 
3.1468058743 3.1566192275 3.168508695 3.1807879532 3.1894157059 3.2016022254 3.2163919888 3.2293063796 3.2391231929 
3.2453894417 3.2539628935 3.2579541211 3.258099523 3.2588041259 3.0868546149 3.0838186705 3.0828687134 3.0800716087 
3.0757716819 3.0686813963 3.0591882743 3.0502039724 3.041489002 3.0342546203 3.0366400996 3.2590328807 3.2562661044 
3.1191525511 3.2582658678 3.1125892235 3.2572026221 3.0826548156 3.2499797025 3.1012286175 3.0978765165 3.2580603702 
3.0924757382 3.0819919277 3.0824076059 3.1072408555 3.2581249271 3.2595868224 3.0823879639 3.0828811563 3.0834575029 
3.090387952 3.0202037004 3.0319533122 3.0027285814 3.0018810069 2.9848867864 2.9943496527 3.0080881152 3.0405745948 
3.0610386069 3.053988178 3.0941509202 3.0765639844 3.0963076242 3.1121771263 3.1230741761 3.1370582351 3.1497832733 
3.1609376577 3.1698270343 3.1759072897 3.1688185084 3.1538396218 3.1419937321 3.1343389216 3.1276007937 3.1215746485 
3.115197217 3.1098904272 3.1045842053 3.0882938474 3.0848994337 3.0801743062 3.0730684257 3.0634185159 3.0538780576 
3.0459934151 3.0386068324 3.0297348152 3.0942788741 3.1192370563 3.1334807962 3.1466409798 3.1566239635 3.1685278545 
3.1808394855 3.189777462 3.2023618492 3.2173075844 3.2306156692 3.2410818376 3.2481782015 3.2575290437 3.2619692826 
3.2634180229 3.2642882266 3.1001094436 3.0834334892 3.0819756334 3.0793037638 3.0751835392 3.0683431752 3.0586368321 
3.0496873472 3.0411749552 3.0339261141 3.0364214729 3.2647878403 3.260272496 3.1190810015 3.2632328321 3.1124924791 
3.262251637 3.0815620806 3.2531287471 3.1010743993 3.0977546457 3.2637672774 3.0921330929 3.0810213103 3.0814143665 
3.1070685338 3.2638239146 3.2652501627 3.0805353555 3.0820259676 3.0829550572 3.0904770401 3.0202670123 3.0323212351 
3.0031488102 3.002208195 2.9850255063 2.9949067772 3.0084723818 3.0407422328 3.0612528934 3.0541843777 3.0943145276 
3.0769128181 3.0969274008 3.1127924328 3.123950309 3.1377900908 3.1508081262 3.1619392665 3.1708712012 3.177337099 
3.1697208186 3.1538249792 3.1420525324 3.1347020388 3.1279876016 3.1219518335 3.1154288131 3.1100050107 3.1046626804 
3.0884391934 3.0850059563 3.0802951972 3.0731598095 3.0635193033 3.0538302963 3.0459512331 3.0385334657 3.029703976 
3.0944952835 3.1192844773 3.1335067608 3.1467338718 3.1568195139 3.1687868331 3.1810803505 3.1903288374 3.2032490386 
3.2182026976 3.2318297717 3.2426212655 3.2501117049 3.2601015862 3.2649955086 3.2670752813 3.2684246298 3.1134298486 
3.0829995543 3.0821755772 3.0788792706 3.0745549786 3.0676928933 3.0579281539 3.0490232743 3.0405849748 3.0333730734 
3.0357771115 3.2691605901 3.2630455988 3.1193061542 3.2665003085 3.1127004104 3.2682131676 3.0825821289 3.2552800309 
3.1011782196 3.097855961 3.2676403445 3.0921850616 3.0806837379 3.0813969144 3.107150173 3.2678873059 3.2701185009 
3.0859821062 3.082597509 3.0830692996 3.0907959879 3.0198107921 3.0326882064 3.00350817 3.0027547204 2.9852787862 
2.9954253116 3.0088909256 3.0409935468 3.0617729032 3.0542885298 3.0946513584 3.0771871434 3.0969012224 3.1126974441 
3.124104899 3.1380105893 3.1512972104 3.1625587322 3.1714446094 3.1786308263 3.170820673 3.1544265142 3.142411742 
3.1353165753 3.1286361758 3.1225406122 3.1159213443 3.1105016045 3.1050725404 3.0887547066 3.0852503329 3.0805268911 
3.0733327842 3.063691314 3.0539210222 3.0460171191 3.0385518463 3.0299076077 3.0950358647 3.1195228988 3.1339136181 
3.1472578294 3.1574007009 3.1694289827 3.1816364696 3.1911544072 3.2043219038 3.2191637413 3.233019961 3.2440292355 
3.2516212106 3.2619166943 3.2671069613 3.2695685978 3.2712749365 3.1306582246 3.0788716822 3.0787503356 3.0762890526 
3.0718250897 3.0649340802 3.0556035881 3.0468483724 3.0384922827 3.0314724172 3.033681442 3.2721144125 3.2651157351 
3.1198238124 3.2687842105 3.1131309932 3.2713881062 3.0777935909 3.2568564154 3.1015559438 3.0980360176 3.2702748354 
3.0925056675 3.0780900241 3.078402946 3.1076024939 3.2706539233 3.2730335796 3.082360214 3.078205684 3.0789118779 
3.0912592005 3.0191287669 3.0330481647 3.0039970891 3.003561093 2.9856944982 2.9957505413 3.0092744894 3.0413224284 
3.0625243093 3.0542986576 3.0952098895 3.0771366771 3.096839121 3.112399595 3.1240541528 3.1380052032 3.1514774652 
3.1626179123 3.1719387679 3.1798239723 3.1721246489 3.1554383027 3.1431438283 3.1361572918 3.1294218696 3.1232897888 
3.1165055154 3.1110415062 3.1056150554 3.0892070283 3.085621607 3.0808639699 3.073592997 3.0639161175 3.0540836752 
3.046146889 3.0386277829 3.0300924276 3.0957218219 3.119940784 3.1347265096 3.1482793256 3.1584682476 3.1705291921 
3.1826097494 3.19233638 3.2056417369 3.2202592445 3.234258603 3.2454137358 3.2529751317 3.26324665 3.2688168112 
3.2714390356 3.2732588891 3.1288843459 3.0743559584 3.0740652823 3.0718874322 3.067623858 3.0609858928 3.0522641537 
3.0437166677 3.0357469015 3.0291108272 3.0309453765 3.2741923807 3.2666835336 3.120487831 3.2705779993 3.1137412247 
3.2733141687 3.073087757 3.2581600325 3.1020807832 3.0985972691 3.2722024436 3.0930358927 3.0735385583 3.0736586013 
3.1081293359 3.2726052957 3.2750502358 3.0765017871 3.073772906 3.0742765696 3.0919421542 3.0191824176 3.0334590389 
3.0046327158 3.0053577981 2.9865459986 2.9962184709 3.009749571 3.0417420275 3.0634957299 3.0538604312 3.0959372029 
3.0765563247 3.0962934129 3.1117552597 3.1236560531 3.1375183681 3.1510598589 3.1626964884 3.1714366075 3.1807553655 
3.1735439849 3.1569080428 3.1441439721 3.1371648804 3.1302946212 3.1241806706 3.1171593293 3.1117242412 3.106277295 
3.0898342639 3.0861742902 3.0813428771 3.0739875313 3.0642344015 3.0543245334 3.0463297001 3.0387778596 3.0300723059 
3.0961995423 3.1205349372 3.1359952996 3.1496987335 3.1599527984 3.1719125691 3.1839819454 3.1938588334 3.2072435498 
3.2215405681 3.2356262806 3.2467948407 3.2543009759 3.2644497791 3.2701703632 3.2729968064 3.2748543939 3.1066247729 
3.0697562874 3.070096319 3.0691171004 3.065142432 3.0590135823 3.0504994889 3.0420697763 3.0344348088 3.0280690941 
3.0299900083 3.2759457117 3.2679966526 3.1212363507 3.2719932756 3.1144199085 3.2739434873 3.0695427365 3.2593833225 
3.1027112422 3.099313069 3.2737825224 3.0937551835 3.0704336339 3.0703039809 3.1088204677 3.2741793649 3.2776371744 
3.0709213285 3.0693039916 3.069649904 3.0927416902 3.0201443516 3.0339334602 3.0052852362 3.0079248967 2.9873468132 
2.9967721286 3.0103330441 3.0422456579 3.0648752062 3.0527727576 3.0967672455 3.0754422474 3.0951283077 3.1105390575 
3.1227102063 3.1364261463 3.1501991953 3.1622473778 3.1724646088 3.1811242118 3.1750236056 3.1589411472 3.145423842 
3.138311079 3.131269081 3.1250695015 3.1180576099 3.11265814 3.1071441031 3.0905606989 3.0868823199 3.0819572475 
3.0745185828 3.0646407605 3.0546534014 3.0465663415 3.0389884881 3.0297087464 3.0967443473 3.1214953664 3.1372747599 
3.1511920769 3.1616123119 3.1733846493 3.1855243907 3.195661659 3.2090419502 3.223023038 3.237006915 3.2485324956 
3.2558811783 3.265785238 3.27208289 3.2751096099 3.2769376835 3.0718575399 3.070871451 3.0707486891 3.0704846864 
3.0667089017 3.060883861 3.0520917686 3.0436617068 3.0361754055 3.0298819735 3.0314595676 3.2783967199 3.2694244074 
3.1221800188 3.2738743027 3.1153028851 3.2647671054 3.068371239 3.2607633733 3.1034705639 3.1000716053 3.2757262882 
3.0945825796 3.0719130525 3.0717363649 3.1097827561 3.2763020833 3.2835759274 3.0648826999 3.069993211 3.0710404785 
3.0935831808 3.0214611893 3.0336844761 3.0052094272 3.0107825697 2.9878607553 2.9976581251 3.0109984014 3.0424692021 
3.066149085 3.0510894602 3.0976793096 3.0729931636 3.0927662576 3.1083547695 3.1209368501 3.1345089445 3.1478844111 
3.1611988375 3.1707200584 3.1817276348 3.1770882856 3.1618649675 3.1472008983 3.1398200076 3.1325135887 3.1263790057 
3.1193470814 3.1136704694 3.1083183565 3.091330007 3.0876599356 3.0826187374 3.0750750589 3.0650174644 3.0549465434 
3.0467568131 3.0390543187 3.0285337027 3.0972368831 3.1224623173 3.1388918681 3.1530041768 3.1635397043 3.1753153244 
3.1872661286 3.1977443397 3.2112708638 3.2250339832 3.2394464194 3.2507563637 3.258108693 3.2682012471 3.275668507 
3.2784746656 3.2789650491 3.0716342256 3.0758791395 3.0752916423 3.0744950199 3.0706207609 3.0646939281 3.0556637738 
3.0473545527 3.0396005166 3.033180668 3.0348072455 3.2794205684 3.2721664348 3.1234255429 3.2771330102 3.1165367667 
3.1369884685 3.0743268239 3.2627816909 3.1045264477 3.10096183 3.2786247684 3.0954726142 3.0760906644 3.0762222139 
3.1110627099 3.2787283655 3.2760648477 3.0708756386 3.0751847868 3.0756537588 3.0943419453 3.0220230717 3.0304628118 
3.0035724028 3.0082419362 2.9858341704 2.9973084372 3.0114487156 3.0443191419 3.0675228557 3.0478115957 3.0980288281 
3.0696790953 3.0893801526 3.1056350875 3.1175746493 3.131550466 3.1437902493 3.1603476696 3.1709427635 3.1834843508 
3.1806670926 3.1660340817 3.1509229456 3.1421071286 3.1342322945 3.1278050513 3.1209655304 3.1153953768 3.1098458986 
3.0922920312 3.0885303748 3.0833941224 3.0758233905 3.0655060887 3.0551715222 3.04673246 3.0388810389 3.0267254431 
3.0997534366 3.1241829588 3.1419400224 3.1565709678 3.1670857568 3.178522855 3.1900681699 3.2013738709 3.2154319734 
3.229358018 3.2440114643 3.2585007977 3.2630006649 3.2722271667 3.2779897878 3.2785824894 3.2765308226 3.0714949962 
3.0790763914 3.0791244869 3.0789777433 3.0748041884 3.0689303513 3.0594933784 3.0512704096 3.043172487 3.0364322941 
3.0383368643 3.2755989999 3.2757139385 3.1247984376 3.2782845058 3.1175685782 3.0579991936 3.0775434922 3.2669057093 
3.1053001758 3.1015073765 3.278086224 3.0962202001 3.0797520274 3.0799621052 3.1127401325 3.2783678889 3.1057720808 
3.0752077804 3.0781104827 3.0787943183 3.0953511916 3.0242828971 3.0321872315 3.0054279007 3.0092070848 2.9880479071 
3.0021731142 3.0153282329 3.0521890793 3.0721767213 3.0480248218 3.0996277047 3.0644643094 3.0855575948 3.1029887031 
3.1178682496 3.1300039373 3.1443174484 3.1640911864 3.1844598114 3.1882681418 3.1843416339 3.1694749027 3.1541311552 
3.1432748227 3.1349653017 3.1287860992 3.1196874482 3.1138170853 3.1087343599 3.0931282968 3.0902351981 3.0846401664 
3.0757634147 3.0663676329 3.0552762013 3.0463312446 3.037827043 3.0248319169 3.1024308538 3.1272386185 3.1503249612 
3.1640891586 3.1737617727 3.188014014 3.1976685277 3.2083056202 3.2263515096 3.2377255167 3.254780032 3.264431223 