# vtk DataFile Version 4.2
vtk output
ASCII
DATASET POLYDATA
POINTS 6341 float
2457.95 -3211.16 5800 2464.84 -3217.81 5800 2483.73 -3211.16 5800 
2447.46 -3198.16 5800 2493.84 -3207.6 5800 2520.67 -3198.16 5800 
2439.96 -3185.16 5800 2522.84 -3197.36 5800 2549.06 -3185.16 5800 
2433.14 -3172.16 5800 2435.84 -3177.31 5800 2551.84 -3183.81 5800 
2575.92 -3172.16 5800 2426.31 -3159.16 5800 2580.85 -3169.77 5800 
2602.78 -3159.15 5800 2419.87 -3146.16 5800 2609.85 -3155.73 5800 
2629.64 -3146.15 5800 2414.09 -3133.16 5800 2638.85 -3141.69 5800 
2656.5 -3133.15 5800 2408.3 -3120.16 5800 2667.85 -3127.65 5800 
2683.36 -3120.15 5800 2402.51 -3107.16 5800 2406.84 -3116.89 5800 
2696.85 -3113.62 5800 2710.22 -3107.15 5800 2396.72 -3094.16 5800 
2725.86 -3099.58 5800 2737.08 -3094.14 5800 2390.94 -3081.15 5800 
2754.86 -3085.54 5800 2763.94 -3081.14 5800 2385.15 -3068.15 5800 
2783.86 -3071.5 5800 2790.8 -3068.14 5800 2379.36 -3055.15 5800 
2812.86 -3057.46 5800 2817.66 -3055.14 5800 2373.57 -3042.15 5800 
2377.85 -3051.75 5800 2841.86 -3043.42 5800 2843.11 -3042.14 5800 
2367.78 -3029.15 5800 2850.9 -3029.13 5800 2362 -3016.15 5800 
2856.84 -3016.13 5800 2356.21 -3003.15 5800 2862.77 -3003.13 5800 
2350.42 -2990.15 5800 2868.7 -2990.13 5800 2344.63 -2977.15 5800 
2348.85 -2986.62 5800 2870.87 -2985.37 5800 2874.63 -2977.13 5800 
2338.85 -2964.15 5800 2880.56 -2964.13 5800 2333.06 -2951.15 5800 
2886.49 -2951.13 5800 2327.27 -2938.15 5800 2892.42 -2938.13 5800 
2321.48 -2925.15 5800 2898.36 -2925.13 5800 2315.69 -2912.14 5800 
2319.86 -2921.49 5800 2899.88 -2921.79 5800 2904.29 -2912.12 5800 
2309.91 -2899.14 5800 2910.22 -2899.12 5800 2304.12 -2886.14 5800 
2916.15 -2886.12 5800 2298.33 -2873.14 5800 2922.08 -2873.12 5800 
2292.54 -2860.14 5800 2928.01 -2860.12 5800 2286.76 -2847.14 5800 
2290.86 -2856.36 5800 2928.88 -2858.21 5800 2933.94 -2847.12 5800 
2280.97 -2834.14 5800 2939.88 -2834.12 5800 2275.18 -2821.14 5800 
2945.81 -2821.12 5800 2269.39 -2808.14 5800 2951.74 -2808.11 5800 
2263.6 -2795.14 5800 2957.67 -2795.11 5800 2250.73 -2782.14 5800 
2261.86 -2792.99 5800 2957.89 -2794.64 5800 2963.6 -2782.11 5800 
2230.43 -2769.14 5800 2232.86 -2770.7 5800 2969.53 -2769.11 5800 
2210.12 -2756.14 5800 2975.46 -2756.11 5800 2189.81 -2743.14 5800 
2203.86 -2752.13 5800 2981.39 -2743.11 5800 2169.24 -2730.14 5800 
2174.86 -2733.56 5800 2986.89 -2730.76 5800 2987.17 -2730.11 5800 
2146.97 -2717.14 5800 2992.18 -2717.11 5800 2122.89 -2704.13 5800 
2145.86 -2716.51 5800 2997.2 -2704.1 5800 2098.75 -2691.13 5800 
2116.87 -2700.89 5800 3002.21 -2691.1 5800 2074.62 -2678.13 5800 
2087.87 -2685.27 5800 3007.23 -2678.1 5800 2050.48 -2665.13 5800 
2058.87 -2669.65 5800 3012.24 -2665.1 5800 2026.34 -2652.13 5800 
2029.87 -2654.03 5800 3015.9 -2655.63 5800 3017.26 -2652.1 5800 
2002.21 -2639.13 5800 3022.28 -2639.1 5800 1978.07 -2626.13 5800 
2000.87 -2638.41 5800 3027.29 -2626.1 5800 1965.77 -2613.13 5800 
1971.87 -2622.79 5800 3032.31 -2613.1 5800 1960.83 -2600.13 5800 
3037.32 -2600.1 5800 1959.36 -2587.13 5800 3042.34 -2587.09 5800 
1959.61 -2574.13 5800 3044.91 -2580.44 5800 3047.35 -2574.09 5800 
1959.87 -2561.13 5800 3052.37 -2561.09 5800 1960.12 -2548.13 5800 
3057.38 -2548.09 5800 1960.38 -2535.13 5800 3062.4 -2535.09 5800 
1960.63 -2522.13 5800 3067.42 -2522.09 5800 1960.88 -2509.13 5800 
3072.68 -2509.09 5800 1961.14 -2496.12 5800 3073.91 -2507.52 5800 
3082.56 -2496.09 5800 1961.39 -2483.12 5800 3094.55 -2483.08 5800 
1961.65 -2470.12 5800 3102.92 -2474.71 5800 3107.53 -2470.08 5800 
1961.9 -2457.12 5800 3120.52 -2457.08 5800 1962.16 -2444.12 5800 
3131.92 -2445.67 5800 3133.5 -2444.08 5800 1962.41 -2431.12 5800 
3146.49 -2431.08 5800 1962.67 -2418.12 5800 3159.47 -2418.08 5800 
1962.92 -2405.12 5800 3160.92 -2416.63 5800 3172.46 -2405.08 5800 
1963.17 -2392.12 5800 3185.44 -2392.07 5800 1963.43 -2379.12 5800 
3189.93 -2387.59 5800 3198.43 -2379.07 5800 1963.68 -2366.11 5800 
3211.41 -2366.07 5800 1963.94 -2353.11 5800 3218.93 -2358.55 5800 
3224.4 -2353.07 5800 1964.19 -2340.11 5800 3233.61 -2340.07 5800 
1964.45 -2327.11 5800 3238.34 -2327.07 5800 1964.7 -2314.11 5800 
3240.47 -2314.07 5800 1964.96 -2301.11 5800 3241.89 -2301.07 5800 
1965.21 -2288.11 5800 3243.31 -2288.06 5800 1965.47 -2275.11 5800 
3244.73 -2275.06 5800 1965.72 -2262.11 5800 3246.14 -2262.06 5800 
1965.97 -2249.11 5800 3247.56 -2249.06 5800 1966.24 -2236.1 5800 
3247.94 -2245.61 5800 3248.98 -2236.06 5800 1966.52 -2223.1 5800 
3250.4 -2223.06 5800 1966.79 -2210.1 5800 3251.82 -2210.06 5800 
1967.07 -2197.1 5800 3253.23 -2197.06 5800 1967.42 -2184.1 5800 
3254.65 -2184.06 5800 1967.8 -2171.1 5800 3256.07 -2171.05 5800 
1968.18 -2158.1 5800 3257.49 -2158.05 5800 1968.57 -2145.1 5800 
3258.9 -2145.05 5800 1968.95 -2132.1 5800 3260.32 -2132.05 5800 
1969.34 -2119.09 5800 3261.74 -2119.05 5800 1969.72 -2106.09 5800 
3263.16 -2106.05 5800 1970.11 -2093.09 5800 3264.58 -2093.05 5800 
1970.49 -2080.09 5800 3265.99 -2080.05 5800 1970.87 -2067.09 5800 
3267.41 -2067.05 5800 1971.26 -2054.09 5800 3268.83 -2054.05 5800 
1971.64 -2041.09 5800 3270.25 -2041.04 5800 1971.91 -2031.97 5800 
1972.02 -2028.09 5800 3271.66 -2028.04 5800 1968.88 -2015.09 5800 
1971.91 -2027.64 5800 3273.08 -2015.04 5800 1965.76 -2002.09 5800 
3274.5 -2002.04 5800 1962.63 -1989.09 5800 3275.92 -1989.04 5800 
1959.5 -1976.08 5800 3276.96 -1979.47 5800 3277.24 -1976.04 5800 
1956.38 -1963.08 5800 3278.31 -1963.04 5800 1953.25 -1950.08 5800 
3279.35 -1950.04 5800 1950.12 -1937.08 5800 3280.38 -1937.04 5800 
1947 -1924.08 5800 3281.38 -1924.03 5800 1943.87 -1911.08 5800 
3282.29 -1911.03 5800 1940.74 -1898.08 5800 1942.92 -1907.13 5800 
3283.01 -1898.03 5800 1937.62 -1885.08 5800 3283.71 -1885.03 5800 
1934.49 -1872.08 5800 3284.4 -1872.03 5800 1931.36 -1859.08 5800 
3285.08 -1859.03 5800 1928.24 -1846.08 5800 3285.74 -1846.03 5800 
1925.11 -1833.07 5800 3286.38 -1833.03 5800 1921.98 -1820.07 5800 
3287.02 -1820.03 5800 1918.86 -1807.07 5800 3287.64 -1807.03 5800 
1915.73 -1794.07 5800 3288.25 -1794.02 5800 1913.2 -1781.07 5800 
1913.93 -1786.58 5800 3288.84 -1781.02 5800 1913.93 -1777.77 5800 
1916.95 -1768.07 5800 3289.43 -1768.02 5800 1920.14 -1755.07 5800 
3290 -1755.02 5800 1922.67 -1742.07 5800 3290.56 -1742.02 5800 
1925.98 -1729.07 5800 3291.17 -1729.02 5800 1929.29 -1716.07 5800 
3291.57 -1716.02 5800 1932.6 -1703.06 5800 3291.98 -1703.02 5800 
1935.91 -1690.06 5800 3292.38 -1690.02 5800 1939.23 -1677.06 5800 
3292.78 -1677.02 5800 1942.54 -1664.06 5800 3293.19 -1664.01 5800 
1942.94 -1662.48 5800 1945.85 -1651.06 5800 3293.59 -1651.01 5800 
1949.16 -1638.06 5800 3293.99 -1638.01 5800 1952.47 -1625.06 5800 
3294.4 -1625.01 5800 1955.78 -1612.06 5800 3294.8 -1612.01 5800 
1959.09 -1599.06 5800 3295.21 -1599.01 5800 1962.4 -1586.05 5800 
3292.45 -1586.01 5800 1965.72 -1573.05 5800 3287.99 -1573.01 5800 
1969.03 -1560.05 5800 3283.69 -1560.01 5800 1971.95 -1548.58 5800 
1972.35 -1547.05 5800 3281.27 -1547.01 5800 1975.75 -1534.05 5800 
3280.75 -1534 5800 1979.13 -1521.05 5800 3281.13 -1521 5800 
1982.55 -1508.05 5800 3281.46 -1508 5800 1985.98 -1495.05 5800 
3281.74 -1495 5800 1987.77 -1482.05 5800 3281.98 -1482 5800 
1988.82 -1469.04 5800 3282.2 -1469 5800 1989.98 -1456.04 5800 
3282.39 -1456 5800 1991.15 -1443.04 5800 3282.56 -1443 5800 
1992.31 -1430.04 5800 3282.72 -1430 5800 1993.47 -1417.04 5800 
3283.14 -1417 5800 1994.63 -1404.04 5800 3283.57 -1403.99 5800 
1995.8 -1391.04 5800 3284.01 -1390.99 5800 1996.96 -1378.04 5800 
3284.44 -1377.99 5800 1998.12 -1365.04 5800 3284.88 -1364.99 5800 
1999.28 -1352.04 5800 3285.32 -1351.99 5800 2000.45 -1339.03 5800 
3285.75 -1338.99 5800 2000.97 -1333.22 5800 2001.61 -1326.03 5800 
3286.19 -1325.99 5800 2002.28 -1313.03 5800 3286.63 -1312.99 5800 
2002.91 -1300.03 5800 3287.06 -1299.99 5800 2003.54 -1287.03 5800 
3287.5 -1286.99 5800 2004.16 -1274.03 5800 3287.93 -1273.98 5800 
2004.79 -1261.03 5800 3288.37 -1260.98 5800 2005.42 -1248.03 5800 
3288.81 -1247.98 5800 2006.04 -1235.03 5800 3289.24 -1234.98 5800 
2006.67 -1222.02 5800 3289.68 -1221.98 5800 2007.3 -1209.02 5800 
3290.11 -1208.98 5800 2007.92 -1196.02 5800 3290.55 -1195.98 5800 
2008.55 -1183.02 5800 3290.99 -1182.98 5800 2009.17 -1170.02 5800 
3291.45 -1169.98 5800 2009.8 -1157.02 5800 3291.94 -1156.98 5800 
2010.43 -1144.02 5800 3292.44 -1143.97 5800 2011.05 -1131.02 5800 
3292.94 -1130.97 5800 2011.69 -1118.02 5800 3293.45 -1117.97 5800 
2011.19 -1105.02 5800 3293.97 -1104.97 5800 2011.57 -1092.01 5800 
3294.53 -1091.97 5800 2011.83 -1079.01 5800 3294.55 -1078.97 5800 
2013.52 -1066.01 5800 3294.4 -1065.97 5800 2017.37 -1053.01 5800 
3294.29 -1052.97 5800 2019.95 -1040.01 5800 3294.19 -1039.97 5800 
2022.66 -1027.01 5800 3294.08 -1026.97 5800 2025.48 -1014.01 5800 
3293.98 -1013.96 5800 2028.43 -1001.01 5800 3293.88 -1000.96 5800 
2029.99 -994.327 5800 2030.93 -988.006 5800 3293.89 -987.962 5800 
2032.87 -975.005 5800 2546.32 -974.987 5800 2552.01 -978.481 5800 
2581.01 -984.475 5800 2610.01 -979.837 5800 2639.02 -975.57 5800 
2643 -974.984 5800 3293.95 -974.961 5800 2034.8 -962.004 5800 
2525.48 -961.987 5800 2668.02 -971.302 5800 2697.02 -967.035 5800 
2726.02 -962.767 5800 2732.54 -961.98 5800 3294 -961.96 5800 
2036.73 -949.003 5800 2505.09 -948.987 5800 2523.01 -960.1 5800 
2755.02 -959.368 5800 2761.78 -948.978 5800 3293.8 -948.959 5800 
2038.67 -936.002 5800 2483.93 -935.986 5800 2494.01 -942.114 5800 
2767.87 -935.977 5800 3291.82 -935.958 5800 2040.35 -923.001 5800 
2461.81 -922.986 5800 2465.01 -924.861 5800 2773.74 -922.975 5800 
3290.27 -922.958 5800 2042.06 -910 5800 2439.6 -909.986 5800 
2779.86 -909.974 5800 3288.51 -909.957 5800 2043.82 -896.999 5800 
2417.39 -896.986 5800 2436.01 -907.888 5800 2784.03 -901.11 5800 
2786.11 -896.973 5800 3285.64 -896.956 5800 2045.64 -883.997 5800 
2402.03 -883.985 5800 2407.01 -890.915 5800 2792.46 -883.972 5800 
3282.77 -883.955 5800 2047.51 -870.996 5800 2394.09 -870.984 5800 
[...]
POINT_DATA 6341
SCALARS Pressure double
LOOKUP_TABLE default
3.0932710339 3.0932710339 3.0932710339 3.0932710339 3.0932710339 3.0932710339 3.0932710339 3.0932710339 3.0932710339 
3.0932710339 3.0932710339 3.0932710339 3.0932710339 3.0932710339 3.0932710339 3.0932710339 3.0932710339 3.0932710339 
3.0932710339 3.0932710339 3.0932710339 3.0932710339 3.0932710339 3.0932710339 3.0932710339 3.0932710339 3.0932710339 
3.0932710339 3.0932710339 3.0932710339 3.0932710339 3.0932710339 3.0932710339 3.0932710339 3.0932710339 3.0932710339 
3.0932710339 3.0932710339 3.0932710339 3.0932710339 3.0932710339 3.0932710339 3.0932710339 3.0932710339 3.0932710339 
3.0932710339 3.0932710339 3.0932710339 3.0932710339 3.0932710339 3.0932710339 3.0932710339 3.0932710339 3.0932710339 
3.0932710339 3.0932710339 3.0932710339 3.0932710339 3.0932710339 3.0932710339 3.0932710339 3.0932710339 3.0932710339 
3.0932710339 3.0932710339 3.0932710339 3.0932710339 3.0932710339 3.0932710339 3.0932710339 3.0932710339 3.0932710339 
3.0932710339 3.0932710339 3.0932710339 3.0932710339 3.0932710339 3.0932710339 3.0932710339 3.0932710339 3.0932710339 
3.0932710339 3.0932710339 3.0932710339 3.0932710339 3.0932710339 3.0932710339 3.0932710339 3.0932710339 3.0932710339 
3.0932710339 3.0932710339 3.0932710339 3.0932710339 3.0932710339 3.0932710339 3.0932710339 3.0932710339 3.0932710339 
3.0932710339 3.0932710339 3.0932710339 3.0932710339 3.0932710339 3.0932710339 3.0932710339 3.0932710339 3.0932710339 
3.0932710339 3.0932710339 3.0932710339 3.0932710339 3.0932710339 3.0932710339 3.0932710339 3.0932710339 3.0932710339 
3.0932710339 3.0932710339 3.0932710339 3.0932710339 3.0932710339 3.0932710339 3.0932710339 3.0932710339 3.0932710339 
3.0932710339 3.0932710339 3.0932710339 3.0932710339 3.0932710339 3.0932710339 3.0932710339 3.0932710339 3.0932710339 
3.0932710339 3.0932710339 3.0932710339 3.0932710339 3.0932710339 3.0932710339 3.0932710339 3.0932710339 3.0932710339 
3.0932710339 3.0932710339 3.0932710339 3.0932710339 3.0932710339 3.0932710339 3.0932710339 3.0932710339 3.0932710339 
3.0932710339 3.0932710339 3.0932710339 3.0932710339 3.0932710339 3.0932710339 3.0932710339 3.0932710339 3.0932710339 
3.0932710339 3.0932710339 3.0932710339 3.0932710339 3.0932710339 3.0932710339 3.0932710339 3.0932710339 3.0932710339 
3.0932710339 3.0932710339 3.0932710339 3.0932710339 3.0932710339 3.0932710339 3.0932710339 3.0932710339 3.0932710339 
3.0932710339 3.0932710339 3.0932710339 3.0932710339 3.0932710339 3.0932710339 3.0932710339 3.0932710339 3.0932710339 
3.0932710339 3.0932710339 3.0932710339 3.0932710339 3.0932710339 3.0932710339 3.0932710339 3.0932710339 3.0932710339 
3.0932710339 3.0932710339 3.0932710339 3.0932710339 3.0932710339 3.0932710339 3.0932710339 3.0932710339 3.0932710339 
3.0932710339 3.0932710339 3.0932710339 3.0932710339 3.0932710339 3.0932710339 3.0932710339 3.0932710339 3.0932710339 
3.0932710339 3.0932710339 3.0932710339 3.0932710339 3.0932710339 3.0932710339 3.0932710339 3.0932710339 3.0932710339 
3.0932710339 3.0932710339 3.0932710339 3.0932710339 3.0932710339 3.0932710339 3.0932710339 3.0932710339 3.0932710339 
3.0932710339 3.0932710339 3.0932710339 3.0932710339 3.0932710339 3.0932710339 3.0932710339 3.0932710339 3.0932710339 
3.0932710339 3.0932710339 3.0932710339 3.0932710339 3.0932710339 3.0932710339 3.0932710339 3.0932710339 3.0932710339 
3.0932710339 3.0932710339 3.0932710339 3.0932710339 3.0932710339 3.0932710339 3.0932710339 3.0932710339 3.0932710339 
3.0932710339 3.0932710339 3.0932710339 3.0932710339 3.0932710339 3.0932710339 3.0932710339 3.0932710339 3.0932710339 
3.0932710339 3.0932710339 3.0932710339 3.0932710339 3.0932710339 3.0932710339 3.0932710339 3.0932710339 3.0932710339 
3.0932710339 3.0932710339 3.0932710339 3.0932710339 3.0932710339 3.0932710339 3.0932710339 3.0932710339 3.0932710339 
3.0932710339 3.0932710339 3.0932710339 3.0932710339 3.0932710339 3.0932710339 3.0932710339 3.0932710339 3.0932710339 
3.0932710339 3.0932710339 3.0932710339 3.0932710339 3.0932710339 3.0932710339 3.0932710339 3.0932710339 3.0932710339 
3.0932710339 3.0932710339 3.0932710339 3.0932710339 3.0932710339 3.0932710339 3.0932710339 3.0932710339 3.0932710339 
3.0932710339 3.0932710339 3.0932710339 3.0932710339 3.0932710339 3.0932710339 3.0932710339 3.0932710339 3.0932710339 
3.0932710339 3.0932710339 3.0932710339 3.0932710339 3.0932710339 3.0932710339 3.0932710339 3.0932710339 3.0932710339 
3.0932710339 3.0932710339 3.0932710339 3.0932710339 3.0932710339 3.0932710339 3.0932710339 3.0932710339 3.0932710339 
3.0932710339 3.0932710339 3.0932710339 3.0932710339 3.0932710339 3.0932710339 3.0932710339 3.0932710339 3.0932710339 
3.0932710339 3.0932710339 3.0932710339 3.0932710339 3.0932710339 3.0932710339 3.0932710339 3.0932710339 3.0932710339 
3.0932710339 3.0932710339 3.0932710339 3.0932710339 3.0932710339 3.0932710339 3.0932710339 3.0932710339 3.0932710339 
3.0932710339 3.0932710339 3.0932710339 3.0932710339 3.0932710339 3.0932710339 3.0932710339 3.0932710339 3.0932710339 
3.0932710339 3.0932710339 3.0932710339 3.0932710339 3.0932710339 3.0932710339 3.0932710339 3.0932710339 3.0932710339 
3.0932710339 3.0932710339 3.0932710339 3.0932710339 3.0932710339 3.0932710339 3.0932710339 3.0932710339 3.0932710339 
3.0932710339 3.0932710339 3.0932710339 3.0932710339 3.1078652246 3.1078652246 3.1078652246 3.1078652246 3.1078652246 
3.1078652246 3.0932710339 3.0932710339 3.1078652246 3.1078652246 3.1078652246 3.1078652246 3.1078652246 3.0932710339 
3.0932710339 3.1078652246 3.1078652246 3.1078652246 3.1078652246 3.0932710339 3.0932710339 3.1078652246 3.1078652246 
3.1078652246 3.0932710339 3.0932710339 3.1078652246 3.1078652246 3.1078652246 3.0932710339 3.0932710339 3.1078652246 
3.1078652246 3.0932710339 3.0932710339 3.1078652246 3.1078652246 3.1078652246 3.1078652246 3.0932710339 3.0932710339 
3.1078652246 3.1078652246 3.1078652246 3.0932710339 3.0932710339 3.1078652246 3.1078652246 3.0932710339 3.0932710339 
3.1078652246 3.1078652246 3.0932710339 3.0932710339 3.0932710339 3.1078652246 3.1078652246 3.0932710339 3.0932710339 
3.1078652246 3.1078652246 3.1078652246 3.1078652246 3.0932710339 3.0932710339 3.1078652246 3.1078652246 3.0932710339 
3.0932710339 3.1078652246 3.1078652246 3.0932710339 3.0932710339 3.0932710339 3.1078652246 3.1078652246 3.0932710339 
3.0932710339 3.1078652246 3.1078652246 3.1078652246 3.1078652246 3.0932710339 3.0932710339 3.1078652246 3.1078652246 
3.0932710339 3.0932710339 3.1078652246 3.1078652246 3.1078652246 3.0932710339 3.0932710339 3.1078652246 3.1078652246 
3.1078652246 3.0932710339 3.0932710339 3.1078652246 3.1078652246 3.0932710339 3.0932710339 3.0932710339 3.1078652246 
3.1078652246 3.0932710339 3.0932710339 3.1078652246 3.1078652246 3.1078652246 3.0932710339 3.0932710339 3.1078652246 
3.1078652246 3.0932710339 3.0932710339 3.1078652246 3.1078652246 3.1078652246 3.0932710339 3.0932710339 3.1078652246 
3.1078652246 3.0932710339 3.0932710339 3.1078652246 3.1078652246 3.0932710339 3.0932710339 3.1078652246 3.1078652246 
3.1078652246 3.0932710339 3.0932710339 3.1078652246 3.1224594153 3.1224594153 3.1224594153 3.1078652246 3.0932710339 
3.0932710339 3.1078652246 3.1224594153 3.1224594153 3.1224594153 3.1224594153 3.1224594153 3.1078652246 3.0932710339 
3.0932710339 3.1078652246 3.1224594153 3.1224594153 3.1224594153 3.1078652246 3.0932710339 3.0932710339 3.1078652246 
3.1224594153 3.1224594153 3.1224594153 3.1224594153 3.1078652246 3.0932710339 3.0932710339 3.0932710339 3.1078652246 
3.1224594153 3.1224594153 3.1224594153 3.1078652246 3.1078652246 3.0932710339 3.0932710339 3.1078652246 3.1224594153 
3.1224594153 3.1224594153 3.1078652246 3.0932710339 3.0932710339 3.1078652246 3.1078652246 3.1224594153 3.1224594153 
3.1078652246 3.0932710339 3.0932710339 3.1078652246 3.1224594153 3.1224594153 3.1224594153 3.1224594153 3.1078652246 
3.0932710339 3.0932710339 3.1078652246 3.1224594153 3.1224594153 3.1078652246 3.0932710339 3.0932710339 3.0932710339 
3.1078652246 3.1224594153 3.1224594153 3.1224594153 3.1078652246 3.1078652246 3.0932710339 3.0932710339 3.1078652246 
3.1224594153 3.1224594153 3.1224594153 3.1078652246 3.0932710339 3.0786768432 3.0786768432 3.0786768432 3.0786768432 
3.0932710339 3.1078652246 3.1224594153 3.1224594153 3.1078652246 3.0932710339 3.0786768432 3.0786768432 3.0786768432 
3.0932710339 3.1078652246 3.1078652246 3.1224594153 3.1224594153 3.1224594153 3.1078652246 3.0932710339 3.0786768432 
3.0786768432 3.0786768432 3.0786768432 3.0786768432 3.0786768432 3.0786768432 3.0786768432 3.0786768432 3.0932710339 
3.1078652246 3.1224594153 3.1224594153 3.1224594153 3.1078652246 3.0932710339 3.0786768432 3.0786768432 3.0786768432 
3.0786768432 3.0786768432 3.0786768432 3.0786768432 3.0786768432 3.0932710339 3.1078652246 3.1224594153 3.1224594153 
3.1078652246 3.0932710339 3.0786768432 3.0786768432 3.0786768432 3.0786768432 3.0786768432 3.0786768432 3.0786768432 
3.0786768432 3.0932710339 3.1078652246 3.1224594153 3.1224594153 3.1224594153 3.1078652246 3.1078652246 3.0932710339 
3.0786768432 3.0786768432 3.0786768432 3.0786768432 3.0786768432 3.0786768432 3.0932710339 3.0932710339 3.1078652246 
3.1224594153 3.137053606 3.137053606 3.137053606 3.137053606 3.137053606 3.1224594153 3.1078652246 3.0932710339 
3.0786768432 3.0786768432 3.0786768432 3.0786768432 3.0786768432 3.0786768432 3.0932710339 3.1078652246 3.1224594153 
3.1224594153 3.137053606 3.137053606 3.137053606 3.137053606 3.1224594153 3.1078652246 3.0932710339 3.0786768432 
3.0786768432 3.0786768432 3.0786768432 3.0786768432 3.0786768432 3.0932710339 3.1078652246 3.1224594153 3.137053606 
3.137053606 3.137053606 3.1224594153 3.1078652246 3.0932710339 3.0786768432 3.0786768432 3.0786768432 3.0786768432 
3.0786768432 3.0932710339 3.1078652246 3.1224594153 3.137053606 3.137053606 3.137053606 3.1224594153 3.1224594153 
3.1078652246 3.0932710339 3.0786768432 3.0786768432 3.0786768432 3.0786768432 3.0786768432 3.0786768432 3.0932710339 
3.1078652246 3.1224594153 3.137053606 3.137053606 3.137053606 3.137053606 3.1224594153 3.1078652246 3.1078652246 
3.0932710339 3.0786768432 3.0786768432 3.0786768432 3.0786768432 3.0786768432 3.0786768432 3.0786768432 3.0932710339 
3.1078652246 3.1224594153 3.137053606 3.137053606 3.1224594153 3.1078652246 3.0932710339 3.0786768432 3.0786768432 
3.0786768432 3.0786768432 3.0786768432 3.0932710339 3.1078652246 3.1224594153 3.137053606 3.137053606 3.1224594153 
3.1224594153 3.1078652246 3.0932710339 3.0786768432 3.0786768432 3.0786768432 3.0786768432 3.0786768432 3.0786768432 
3.0932710339 3.1078652246 3.1224594153 3.1224594153 3.137053606 3.137053606 3.1224594153 3.1078652246 3.0932710339 
3.0786768432 3.0786768432 3.0786768432 3.0786768432 3.0932710339 3.1078652246 3.1224594153 3.137053606 3.137053606 
3.137053606 3.137053606 3.1224594153 3.1078652246 3.0932710339 3.0786768432 3.0786768432 3.0786768432 3.0786768432 
3.0786768432 3.0932710339 3.1078652246 3.1224594153 3.137053606 3.137053606 3.1224594153 3.1078652246 3.0932710339 
3.0786768432 3.0786768432 3.0786768432 3.0786768432 3.0786768432 3.0786768432 3.0786768432 3.0932710339 3.1078652246 
3.1224594153 3.137053606 3.137053606 3.1516477967 3.1516477967 3.1516477967 3.137053606 3.1224594153 3.1078652246 
3.0932710339 3.0932710339 3.0786768432 3.0786768432 3.0786768432 3.0786768432 3.0932710339 3.1078652246 3.1078652246 
3.1224594153 3.137053606 3.1516477967 3.1516477967 3.1516477967 3.137053606 3.1224594153 3.1224594153 3.1078652246 
3.0932710339 3.0932710339 3.0786768432 3.0786768432 3.0786768432 3.0786768432 3.0786768432 3.0932710339 3.1078652246 
3.1224594153 3.137053606 3.1516477967 3.1516477967 3.1516477967 3.1516477967 3.137053606 3.137053606 3.1224594153 
3.1078652246 3.1078652246 3.0932710339 3.0786768432 3.0786768432 3.0786768432 3.0786768432 3.0786768432 3.0786768432 
3.0932710339 3.1078652246 3.1224594153 3.1224594153 3.137053606 3.1516477967 3.1516477967 3.1516477967 3.1516477967 
3.137053606 3.1224594153 3.1078652246 3.0932710339 3.0786768432 3.0786768432 3.0786768432 3.0786768432 3.0932710339 
3.1078652246 3.1224594153 3.137053606 3.137053606 3.1516477967 3.1516477967 3.1516477967 3.137053606 3.1224594153 
3.1078652246 3.0932710339 3.0786768432 3.0786768432 3.0786768432 3.0786768432 3.0932710339 3.1078652246 3.1224594153 
3.137053606 3.1516477967 3.1516477967 3.137053606 3.1224594153 3.1078652246 3.0932710339 3.0786768432 3.0786768432 
3.0786768432 3.0786768432 3.0932710339 3.1078652246 3.1224594153 3.137053606 3.1516477967 3.1516477967 3.1516477967 
3.1516477967 3.137053606 3.1224594153 3.1078652246 3.0932710339 3.0786768432 3.0786768432 3.0786768432 3.0640826525 
3.0640826525 3.0640826525 3.0640826525 3.0786768432 3.0786768432 3.0932710339 3.1078652246 3.1224594153 3.137053606 
3.137053606 3.1516477967 3.1516477967 3.137053606 3.137053606 3.1224594153 3.1078652246 3.0932710339 3.0786768432 
3.0786768432 3.0786768432 3.0786768432 3.0786768432 3.0640826525 3.0640826525 3.0640826525 3.0640826525 3.0640826525 
3.0640826525 3.0786768432 3.0932710339 3.1078652246 3.1224594153 3.1224594153 3.137053606 3.1516477967 3.1516477967 
3.137053606 3.1224594153 3.1078652246 3.0932710339 3.0786768432 3.0786768432 3.0786768432 3.0640826525 3.0640826525 
3.0640826525 3.0786768432 3.0932710339 3.1078652246 3.1224594153 3.137053606 3.1516477967 3.1516477967 3.1516477967 
3.137053606 3.1224594153 3.1078652246 3.0932710339 3.0786768432 3.0786768432 3.0786768432 3.0640826525 3.0640826525 
3.0640826525 3.0786768432 3.0932710339 3.1078652246 3.1224594153 3.137053606 3.1516477967 3.1662419875 3.1662419875 
3.1662419875 3.1662419875 3.1662419875 3.1662419875 3.1516477967 3.137053606 3.1224594153 3.1078652246 3.0932710339 
3.0786768432 3.0786768432 3.0786768432 3.0786768432 3.0640826525 3.0640826525 3.0640826525 3.0786768432 3.0932710339 
3.1078652246 3.1224594153 3.137053606 3.137053606 3.1516477967 3.1516477967 3.1662419875 3.1662419875 3.1516477967 
3.137053606 3.1224594153 3.1078652246 3.0932710339 3.0786768432 3.0786768432 3.0786768432 3.0786768432 3.0786768432 
3.0640826525 3.0640826525 3.0640826525 3.0786768432 3.0932710339 3.1078652246 3.1224594153 3.137053606 3.1516477967 
3.1662419875 3.1662419875 3.1662419875 3.1516477967 3.1516477967 3.137053606 3.1224594153 3.1078652246 3.0932710339 
3.0786768432 3.0786768432 3.0786768432 3.0640826525 3.0640826525 3.0786768432 3.0932710339 3.1078652246 3.1078652246 
3.1224594153 3.137053606 3.1516477967 3.1516477967 3.1662419875 3.1662419875 3.1662419875 3.1516477967 3.137053606 
3.1224594153 3.1078652246 3.1078652246 3.0932710339 3.0786768432 3.0786768432 3.0786768432 3.0640826525 3.0494884618 
3.0494884618 3.0494884618 3.0640826525 3.0786768432 3.0932710339 3.1078652246 3.1224594153 3.1224594153 3.137053606 
3.1516477967 3.1662419875 3.1662419875 3.1662419875 3.1516477967 3.137053606 3.1224594153 3.1078652246 3.0932710339 
3.0786768432 3.0786768432 3.0786768432 3.0786768432 3.0786768432 3.0786768432 3.0640826525 3.0494884618 3.0494884618 
3.0494884618 3.0494884618 3.0494884618 3.0640826525 3.0640826525 3.0786768432 3.0786768432 3.0932710339 3.1078652246 
3.1224594153 3.137053606 3.137053606 3.1516477967 3.1662419875 3.1662419875 3.1662419875 3.1516477967 3.1516477967 
3.137053606 3.1224594153 3.1078652246 3.0932710339 3.0932710339 3.0786768432 3.0786768432 3.0786768432 3.0786768432 
3.0786768432 3.0786768432 3.0786768432 3.0640826525 3.0640826525 3.0494884618 3.0494884618 3.0494884618 3.0640826525 
3.0786768432 3.0932710339 3.1078652246 3.1224594153 3.137053606 3.1516477967 3.1516477967 3.1662419875 3.1662419875 
3.1516477967 3.137053606 3.1224594153 3.1078652246 3.0932710339 3.0786768432 3.0786768432 3.0640826525 3.0640826525 
3.0640826525 3.0640826525 3.0640826525 3.0786768432 3.0786768432 3.0786768432 3.0640826525 3.0494884618 3.0494884618 
3.0494884618 3.0640826525 3.0786768432 3.0932710339 3.1078652246 3.1224594153 3.137053606 3.1516477967 3.1662419875 
3.1662419875 3.1662419875 3.1516477967 3.137053606 3.137053606 3.1224594153 3.1078652246 3.0932710339 3.0786768432 
3.0640826525 3.0640826525 3.0640826525 3.0786768432 3.0786768432 3.0640826525 3.0494884618 3.0348942711 3.0348942711 
3.0348942711 3.0494884618 3.0640826525 3.0786768432 3.0932710339 3.1078652246 3.1224594153 3.1224594153 3.137053606 
3.1516477967 3.1662419875 3.1662419875 3.1516477967 3.137053606 3.1224594153 3.1078652246 3.0932710339 3.0786768432 
3.0640826525 3.0640826525 3.0640826525 3.0786768432 3.0786768432 3.0786768432 3.0640826525 3.0494884618 3.0348942711 
3.0348942711 3.0348942711 3.0348942711 3.0494884618 3.0494884618 3.0640826525 3.0786768432 3.0786768432 3.0932710339 
3.1078652246 3.1224594153 3.137053606 3.137053606 2.9619233175 2.9619233175 2.9765175082 2.9765175082 2.991111699 
2.991111699 3.0057058897 3.0057058897 3.0203000804 3.0203000804 3.0348942711 3.0348942711 3.0494884618 3.0494884618 
3.0640826525 3.0640826525 3.0786768432 3.0786768432 3.0932710339 3.0932710339 3.1078652246 3.1078652246 3.1224594153 
3.1224594153 3.137053606 3.137053606 3.1516477967 2.9619233175 2.9765175082 2.991111699 3.0057058897 3.0203000804 
3.0348942711 3.0494884618 3.0640826525 3.0786768432 3.0932710339 3.1078652246 3.1224594153 3.137053606 3.1516477967 
2.9619233175 2.9765175082 2.991111699 3.0057058897 3.0203000804 3.0348942711 3.0494884618 3.0640826525 3.0786768432 
3.0932710339 3.1078652246 3.1224594153 3.137053606 3.1516477967 3.1662419875 2.9619233175 2.9765175082 2.991111699 
3.0057058897 3.0203000804 3.0348942711 3.0494884618 3.0640826525 3.0786768432 3.0932710339 3.1078652246 3.1224594153 
3.137053606 3.1516477967 3.1662419875 2.9619233175 2.9765175082 2.991111699 3.0057058897 3.0203000804 3.0348942711 
3.0494884618 3.0640826525 3.0786768432 3.0932710339 3.1078652246 3.1224594153 3.137053606 3.1516477967 3.1662419875 
2.9619233175 2.9765175082 2.991111699 3.0057058897 3.0203000804 3.0348942711 3.0494884618 3.0640826525 3.0786768432 
3.0932710339 3.1078652246 3.1224594153 3.137053606 3.1516477967 3.1662419875 2.9619233175 2.9765175082 2.991111699 
3.0057058897 3.0203000804 3.0348942711 3.0494884618 3.0640826525 3.0786768432 3.0932710339 3.1078652246 3.1224594153 
3.137053606 3.1516477967 3.1662419875 2.9619233175 2.9765175082 2.991111699 3.0057058897 3.0203000804 3.0348942711 
3.0494884618 3.0640826525 3.0786768432 3.0932710339 3.1078652246 3.1224594153 3.137053606 3.1516477967 3.1662419875 
2.9619233175 2.9765175082 2.991111699 3.0057058897 3.0203000804 3.0348942711 3.0494884618 3.0640826525 3.0786768432 
3.0932710339 3.1078652246 3.1224594153 3.137053606 3.1516477967 3.1662419875 2.9619233175 2.9765175082 2.991111699 
3.0057058897 3.0203000804 3.0348942711 3.0494884618 3.0640826525 3.0786768432 3.0932710339 3.1078652246 3.1224594153 
3.137053606 3.1516477967 3.1662419875 2.9619233175 2.9765175082 2.991111699 3.0057058897 3.0203000804 3.0348942711 
3.0494884618 3.0640826525 3.0786768432 3.0932710339 3.1078652246 3.1224594153 3.137053606 3.1516477967 3.1662419875 
2.9619233175 2.9765175082 2.991111699 3.0057058897 3.0203000804 3.0348942711 3.0494884618 3.0640826525 3.0786768432 
3.0932710339 3.1078652246 3.1224594153 3.137053606 3.1516477967 2.9619233175 2.9765175082 2.991111699 3.0057058897 
3.0203000804 3.0348942711 3.0494884618 3.0640826525 3.0786768432 3.0932710339 3.1078652246 3.1224594153 3.137053606 
3.1516477967 2.9619233175 2.9765175082 2.991111699 3.0057058897 3.0203000804 3.0348942711 3.0494884618 3.0640826525 
3.0786768432 3.0932710339 3.1078652246 3.1224594153 3.137053606 2.9619233175 2.9765175082 2.991111699 3.0057058897 
3.0203000804 3.0348942711 3.0494884618 3.0640826525 3.0786768432 3.0932710339 3.1078652246 3.1224594153 3.137053606 
2.9619233175 2.9765175082 2.991111699 3.0057058897 3.0203000804 3.0348942711 3.0494884618 3.0640826525 3.0786768432 
3.0932710339 3.1078652246 3.1224594153 3.137053606 2.9619233175 2.9765175082 2.991111699 3.0057058897 3.0203000804 