# vtk DataFile Version 4.2
vtk output
ASCII
DATASET POLYDATA
POINTS 7035 float
1531.67 -3417.16 0 1553.84 -3431.66 0 1582.01 -3417.16 0 
1514.86 -3400.16 0 1516.84 -3403.4 0 1590.84 -3412.61 0 
1615.04 -3400.16 0 1504.47 -3383.16 0 1627.84 -3393.56 0 
1648.06 -3383.15 0 1494.08 -3366.16 0 1664.85 -3374.52 0 
1681.09 -3366.15 0 1483.69 -3349.16 0 1701.85 -3355.47 0 
1714.12 -3349.15 0 1473.3 -3332.16 0 1479.84 -3342.87 0 
1738.85 -3336.42 0 1747.15 -3332.15 0 1462.9 -3315.16 0 
1775.85 -3317.37 0 1780.17 -3315.15 0 1452.51 -3298.15 0 
1812.85 -3298.32 0 1813.2 -3298.15 0 1442.12 -3281.15 0 
1442.85 -3282.34 0 1846.23 -3281.14 0 1431.73 -3264.15 0 
1849.86 -3279.28 0 1879.26 -3264.14 0 1421.34 -3247.15 0 
1886.86 -3260.23 0 1912.28 -3247.14 0 1410.95 -3230.15 0 
1923.86 -3241.18 0 1945.31 -3230.14 0 1400.56 -3213.15 0 
1405.85 -3221.81 0 1960.86 -3222.13 0 1978.34 -3213.14 0 
1390.16 -3196.15 0 1997.87 -3203.08 0 2011.36 -3196.13 0 
1379.77 -3179.15 0 2034.87 -3184.03 0 2044.39 -3179.13 0 
1369.38 -3162.15 0 2071.87 -3164.99 0 2077.42 -3162.13 0 
1358.99 -3145.15 0 1368.85 -3161.28 0 2108.87 -3145.94 0 
2110.45 -3145.13 0 1348.6 -3128.15 0 2143.47 -3128.13 0 
1338.21 -3111.15 0 2145.87 -3126.89 0 2178.34 -3111.12 0 
1327.82 -3094.15 0 1331.85 -3100.75 0 2182.88 -3109.91 0 
2219.88 -3105.41 0 2256.88 -3100.91 0 2293.88 -3096.41 0 
2312.74 -3094.12 0 1317.42 -3077.15 0 2330.88 -3091.6 0 
2339.1 -3077.12 0 1307.03 -3060.14 0 2342.87 -3060.12 0 
1296.64 -3043.14 0 2346.63 -3043.12 0 1286.25 -3026.14 0 
1294.86 -3040.22 0 2350.4 -3026.11 0 1275.86 -3009.14 0 
2354.17 -3009.11 0 1265.47 -2992.14 0 2357.94 -2992.11 0 
1255.08 -2975.14 0 1257.86 -2979.69 0 2361.7 -2975.11 0 
1244.69 -2958.14 0 2365.47 -2958.11 0 1234.29 -2941.14 0 
2367.89 -2947.19 0 2369.24 -2941.11 0 1223.9 -2924.14 0 
2373.01 -2924.11 0 1190.05 -2907.14 0 1220.86 -2922.57 0 
2376.77 -2907.11 0 1144.03 -2890.14 0 1146.86 -2891.18 0 
1183.86 -2904.85 0 2380.54 -2890.11 0 1098.02 -2873.14 0 
1109.86 -2877.51 0 2384.31 -2873.1 0 1052.01 -2856.14 0 
1072.86 -2863.84 0 2388.08 -2856.1 0 1007.72 -2839.14 0 
1035.86 -2850.17 0 2391.84 -2839.1 0 979.959 -2822.14 0 
998.86 -2835.07 0 2395.61 -2822.1 0 959.38 -2805.14 0 
961.861 -2809.76 0 2399.38 -2805.1 0 950.424 -2788.14 0 
2403.15 -2788.1 0 941.72 -2771.14 0 2404.9 -2780.18 0 
2406.91 -2771.1 0 933.258 -2754.14 0 2410.68 -2754.1 0 
925.028 -2737.14 0 2414.45 -2737.1 0 918.45 -2720.14 0 
924.864 -2736.79 0 2418.22 -2720.09 0 911.903 -2703.13 0 
2421.98 -2703.09 0 905.356 -2686.13 0 2425.75 -2686.09 0 
898.81 -2669.13 0 2429.52 -2669.09 0 892.263 -2652.13 0 
2433.29 -2652.09 0 885.716 -2635.13 0 887.869 -2640.72 0 
2437.06 -2635.09 0 879.17 -2618.13 0 2440.82 -2618.09 0 
872.623 -2601.13 0 2441.91 -2613.17 0 2444.59 -2601.09 0 
866.076 -2584.13 0 2448.36 -2584.09 0 859.53 -2567.13 0 
2452.13 -2567.08 0 852.983 -2550.13 0 2455.89 -2550.08 0 
846.436 -2533.13 0 850.873 -2544.65 0 2459.66 -2533.08 0 
839.89 -2516.13 0 2463.43 -2516.08 0 833.343 -2499.12 0 
2467.2 -2499.08 0 826.797 -2482.12 0 2470.96 -2482.08 0 
820.25 -2465.12 0 2474.73 -2465.08 0 813.703 -2448.12 0 
813.878 -2448.58 0 2478.5 -2448.08 0 807.157 -2431.12 0 
2478.92 -2446.16 0 2482.27 -2431.08 0 800.61 -2414.12 0 
2486.03 -2414.07 0 794.063 -2397.12 0 2489.8 -2397.07 0 
787.517 -2380.12 0 2493.57 -2380.07 0 780.97 -2363.12 0 
2497.34 -2363.07 0 774.423 -2346.12 0 776.883 -2352.5 0 
2501.1 -2346.07 0 767.877 -2329.12 0 2504.87 -2329.07 0 
761.33 -2312.12 0 2508.64 -2312.07 0 754.783 -2295.11 0 
2512.41 -2295.07 0 748.237 -2278.11 0 2515.93 -2279.15 0 
2516.17 -2278.07 0 741.69 -2261.11 0 2519.94 -2261.06 0 
735.143 -2244.11 0 739.887 -2256.43 0 2523.71 -2244.06 0 
728.597 -2227.11 0 2527.48 -2227.06 0 722.05 -2210.11 0 
2531.24 -2210.06 0 715.504 -2193.11 0 2541.98 -2193.06 0 
709.139 -2176.11 0 2552.94 -2178.05 0 2554.39 -2176.06 0 
706.188 -2159.11 0 2564.19 -2159.06 0 703.832 -2142.11 0 
2569.14 -2142.06 0 701.481 -2125.11 0 702.893 -2135.32 0 
2572.17 -2125.06 0 699.129 -2108.1 0 2571.53 -2108.05 0 
696.778 -2091.1 0 2570.55 -2091.05 0 694.426 -2074.1 0 
2569.57 -2074.05 0 692.075 -2057.1 0 2568.59 -2057.05 0 
689.723 -2040.1 0 2567.61 -2040.05 0 687.371 -2023.1 0 
2566.63 -2023.05 0 685.02 -2006.1 0 2565.64 -2006.05 0 
682.668 -1989.1 0 2564.66 -1989.05 0 680.317 -1972.1 0 
2563.68 -1972.05 0 677.965 -1955.1 0 2562.7 -1955.05 0 
675.614 -1938.1 0 2561.72 -1938.04 0 673.262 -1921.09 0 
2560.74 -1921.04 0 670.911 -1904.09 0 2559.75 -1904.04 0 
668.559 -1887.09 0 2558.77 -1887.04 0 666.207 -1870.09 0 
2557.79 -1870.04 0 663.956 -1853.09 0 665.908 -1867.93 0 
2556.81 -1853.04 0 661.832 -1836.09 0 2555.83 -1836.04 0 
659.82 -1819.09 0 2554.85 -1819.04 0 657.911 -1802.09 0 
2553.86 -1802.04 0 656.097 -1785.09 0 2552.96 -1786.44 0 
2552.88 -1785.04 0 654.359 -1768.09 0 2551.9 -1768.04 0 
653.298 -1751.09 0 2550.92 -1751.03 0 652.237 -1734.08 0 
2549.94 -1734.03 0 651.175 -1717.08 0 2548.96 -1717.03 0 
650.09 -1700.08 0 2547.98 -1700.03 0 648.575 -1683.08 0 
2546.99 -1683.03 0 647.043 -1666.08 0 2546.01 -1666.03 0 
645.512 -1649.08 0 2545.03 -1649.03 0 643.152 -1632.08 0 
2544.05 -1632.03 0 640.243 -1615.08 0 2543.07 -1615.03 0 
637.932 -1598.08 0 2542.09 -1598.03 0 636.051 -1581.08 0 
2541.1 -1581.02 0 -481.106 -1579.04 0 -511.669 -1564.11 0 
-444.105 -1577.17 0 -407.103 -1565.49 0 -402.697 -1564.1 0 
634.49 -1564.07 0 1309.63 -1564.06 0 1331.94 -1569.18 0 
1368.94 -1570.15 0 1405.95 -1571.12 0 1442.95 -1572.09 0 
1479.95 -1573.06 0 1516.95 -1574.04 0 1553.95 -1575.01 0 
1590.95 -1575.98 0 1621.49 -1564.05 0 2540.59 -1564.02 0 
-518.106 -1560.96 0 -546.459 -1547.11 0 -370.101 -1553.82 0 
-348.814 -1547.1 0 633.175 -1547.07 0 1269.18 -1547.06 0 
1294.94 -1560.13 0 1627.95 -1560.28 0 1641.65 -1547.05 0 
2541.46 -1547.02 0 -555.106 -1542.88 0 -581.249 -1530.11 0 
-333.1 -1542.14 0 -296.098 -1530.47 0 -294.931 -1530.1 0 
629.722 -1530.07 0 1247.26 -1530.06 0 1257.94 -1541.75 0 
1659.26 -1530.05 0 2542.5 -1530.02 0 -592.106 -1524.8 0 
-616.039 -1513.11 0 -259.096 -1518.79 0 -241.048 -1513.1 0 
624.801 -1513.07 0 628.927 -1526.47 0 1230.75 -1513.06 0 
1664.96 -1524.55 0 1678.27 -1513.04 0 2543.54 -1513.02 0 
-629.106 -1506.72 0 -650.83 -1496.11 0 -222.095 -1507.11 0 
-187.165 -1496.09 0 620.481 -1496.07 0 1213.13 -1496.06 0 
1220.94 -1504.12 0 1697.48 -1496.04 0 2544.58 -1496.02 0 
-666.106 -1488.64 0 -685.62 -1479.11 0 -185.093 -1495.44 0 
-148.091 -1483.76 0 -133.282 -1479.09 0 616.933 -1479.07 0 
1196.65 -1479.05 0 1701.96 -1492 0 1717.47 -1479.04 0 
2545.62 -1479.02 0 -703.105 -1470.56 0 -716.591 -1462.11 0 
-111.09 -1472.09 0 -74.0883 -1467.16 0 -67.2128 -1462.09 0 
613.966 -1462.07 0 1180.16 -1462.05 0 1183.95 -1465.96 0 
1737.82 -1462.04 0 2546.66 -1462.02 0 -734.726 -1445.1 0 
-42.2937 -1445.09 0 610.984 -1445.07 0 1163.68 -1445.05 0 
1738.96 -1461.09 0 1758.17 -1445.04 0 2547.7 -1445.02 0 
-740.105 -1438.04 0 -747.118 -1428.1 0 -37.0857 -1440.75 0 
-28.1111 -1428.08 0 607.237 -1428.07 0 1147.19 -1428.05 0 
1775.96 -1430.17 0 1778.04 -1428.04 0 2548.74 -1428.02 0 
-759.123 -1411.1 0 -16.0666 -1411.08 0 603.489 -1411.07 0 
1130.71 -1411.05 0 1146.95 -1427.8 0 1791.82 -1411.03 0 
2549.78 -1411.01 0 -771.129 -1394.1 0 -4.18768 -1394.08 0 
599.742 -1394.07 0 1114.23 -1394.05 0 1802.05 -1394.03 0 
2550.81 -1394.01 0 -777.103 -1385.64 0 -783.134 -1377.1 0 
-0.0816728 -1388.52 0 8.02224 -1377.08 0 595.994 -1377.06 0 
1095.52 -1377.05 0 1109.95 -1389.64 0 1809.94 -1377.03 0 
2551.85 -1377.01 0 -795.139 -1360.1 0 20.0667 -1360.08 0 
592.247 -1360.06 0 1072.65 -1360.05 0 1072.95 -1360.27 0 
1812.97 -1369.3 0 1816.49 -1360.03 0 2548.15 -1360.01 0 
-807.145 -1343.1 0 32.1112 -1343.08 0 588.499 -1343.06 0 
591.936 -1358.65 0 1048.65 -1343.05 0 1822.95 -1343.03 0 
2545.07 -1343.01 0 -814.1 -1333.25 0 -819.15 -1326.1 0 
36.9224 -1336.29 0 44.1556 -1326.08 0 584.752 -1326.06 0 
1024.64 -1326.05 0 1035.95 -1334.06 0 1829.42 -1326.03 0 
2542.35 -1326.01 0 -831.156 -1309.1 0 56.2001 -1309.08 0 
579.414 -1309.06 0 1000.64 -1309.05 0 1835.88 -1309.03 0 
2538.98 -1309.01 0 -843.161 -1292.1 0 68.2446 -1292.07 0 
570.076 -1292.06 0 985.828 -1292.05 0 998.95 -1307.85 0 
1842.34 -1292.03 0 2535.61 -1292.01 0 -851.098 -1280.86 0 
-855.166 -1275.1 0 73.9265 -1284.05 0 80.289 -1275.07 0 
563.738 -1275.06 0 971.643 -1275.05 0 1848.8 -1275.03 0 
2532.24 -1275.01 0 -867.172 -1258.1 0 92.3334 -1258.07 0 
558.734 -1258.06 0 958.297 -1258.05 0 961.952 -1263.48 0 
1849.98 -1271.94 0 1855.26 -1258.02 0 2528.87 -1258.01 0 
-879.177 -1241.1 0 104.378 -1241.07 0 554.579 -1241.06 0 
554.942 -1242.63 0 946.859 -1241.05 0 1865.6 -1241.02 0 
2525.5 -1241 0 -888.096 -1228.47 0 -891.182 -1224.1 0 
110.931 -1231.82 0 116.422 -1224.07 0 550.649 -1224.06 0 
935.422 -1224.05 0 1876.14 -1224.02 0 2522.13 -1224 0 
-903.188 -1207.1 0 126.334 -1207.07 0 546.727 -1207.06 0 
923.984 -1207.05 0 924.954 -1208.49 0 1886.68 -1207.02 0 
2518.76 -1207 0 -915.193 -1190.09 0 132.355 -1190.07 0 
542.813 -1190.06 0 912.97 -1190.05 0 1886.98 -1206.54 0 
1897.22 -1190.02 0 2516 -1193.07 0 2515.39 -1190 0 
-925.094 -1176.07 0 -927.198 -1173.09 0 136.579 -1173.07 0 
538.906 -1173.05 0 902.848 -1173.04 0 1907.76 -1173.02 0 
2512.04 -1173 0 -939.204 -1156.09 0 139.162 -1156.06 0 
535.008 -1156.05 0 893.518 -1156.04 0 1917.59 -1156.02 0 
2509.2 -1156 0 -951.602 -1139.09 0 140.923 -1139.06 0 
531.117 -1139.05 0 884.736 -1139.04 0 887.957 -1145.28 0 
1923.98 -1141.4 0 1924.81 -1139.02 0 2507.94 -1139 0 
-962.092 -1128.82 0 -968.223 -1122.09 0 142.684 -1122.06 0 
527.234 -1122.05 0 875.953 -1122.04 0 1930.7 -1122.01 0 
2507.44 -1122 0 -987.644 -1105.09 0 144.445 -1105.06 0 
523.36 -1105.05 0 867.171 -1105.04 0 1936.58 -1105.01 0 
2506.95 -1105 0 -999.091 -1095.06 0 -1005.23 -1088.09 0 
146.206 -1088.06 0 519.493 -1088.05 0 858.389 -1088.04 0 
1942.47 -1088.01 0 2506.45 -1088 0 -1015.14 -1071.09 0 
147.941 -1071.31 0 147.967 -1071.06 0 515.546 -1071.05 0 
517.95 -1081.26 0 849.606 -1071.04 0 850.96 -1073.66 0 
[...]
POINT_DATA 7035
SCALARS Pressure double
LOOKUP_TABLE default
3.0932710339 3.0932710339 3.0932710339 3.0932710339 3.0932710339 3.0932710339 3.0932710339 3.0932710339 3.0932710339 
3.0932710339 3.0932710339 3.0932710339 3.0932710339 3.0932710339 3.0932710339 3.0932710339 3.0932710339 3.0932710339 
3.0932710339 3.0932710339 3.0932710339 3.0932710339 3.0932710339 3.0932710339 3.0932710339 3.0932710339 3.0932710339 
3.0932710339 3.0932710339 3.0932710339 3.0932710339 3.0932710339 3.0932710339 3.0932710339 3.0932710339 3.0932710339 
3.0932710339 3.0932710339 3.0932710339 3.0932710339 3.0932710339 3.0932710339 3.0932710339 3.0932710339 3.0932710339 
3.0932710339 3.0932710339 3.0932710339 3.0932710339 3.0932710339 3.0932710339 3.0932710339 3.0932710339 3.0932710339 
3.0932710339 3.0932710339 3.0932710339 3.0932710339 3.0932710339 3.0932710339 3.0932710339 3.0932710339 3.0932710339 
3.0932710339 3.0932710339 3.0932710339 3.0932710339 3.0932710339 3.0932710339 3.0932710339 3.0932710339 3.0932710339 
3.0932710339 3.0932710339 3.0932710339 3.0932710339 3.0932710339 3.0932710339 3.0932710339 3.0932710339 3.0932710339 
3.0932710339 3.0932710339 3.0932710339 3.0932710339 3.0932710339 3.0932710339 3.0932710339 3.0932710339 3.0932710339 
3.0932710339 3.0932710339 3.0932710339 3.0932710339 3.0932710339 3.0932710339 3.0932710339 3.0932710339 3.0932710339 
3.0932710339 3.0932710339 3.0932710339 3.0932710339 3.0932710339 3.0932710339 3.0932710339 3.0932710339 3.0932710339 
3.0932710339 3.0932710339 3.0932710339 3.0932710339 3.0932710339 3.0932710339 3.0932710339 3.0932710339 3.0932710339 
3.0932710339 3.0932710339 3.0932710339 3.0932710339 3.0932710339 3.0932710339 3.0932710339 3.0932710339 3.0932710339 
3.0932710339 3.0932710339 3.0932710339 3.0932710339 3.0932710339 3.0932710339 3.0932710339 3.0932710339 3.0932710339 
3.0932710339 3.0932710339 3.0932710339 3.0932710339 3.0932710339 3.0932710339 3.0932710339 3.0932710339 3.0932710339 
3.0932710339 3.0932710339 3.0932710339 3.0932710339 3.0932710339 3.0932710339 3.0932710339 3.0932710339 3.0932710339 
3.0932710339 3.0932710339 3.0932710339 3.0932710339 3.0932710339 3.0932710339 3.0932710339 3.0932710339 3.0932710339 
3.0932710339 3.0932710339 3.0932710339 3.0932710339 3.0932710339 3.0932710339 3.0932710339 3.0932710339 3.0932710339 
3.0932710339 3.0932710339 3.0932710339 3.0932710339 3.0932710339 3.0932710339 3.0932710339 3.0932710339 3.0932710339 
3.0932710339 3.0932710339 3.0932710339 3.0932710339 3.0932710339 3.0932710339 3.0932710339 3.0932710339 3.0932710339 
3.0932710339 3.0932710339 3.0932710339 3.0932710339 3.0932710339 3.0932710339 3.0932710339 3.0932710339 3.0932710339 
3.0932710339 3.0932710339 3.0932710339 3.0932710339 3.0932710339 3.0932710339 3.0932710339 3.0932710339 3.0932710339 
3.0932710339 3.0932710339 3.0932710339 3.0932710339 3.0932710339 3.0932710339 3.0932710339 3.0932710339 3.0932710339 
3.0932710339 3.0932710339 3.0932710339 3.0932710339 3.0932710339 3.0932710339 3.0932710339 3.0932710339 3.0932710339 
3.0932710339 3.0932710339 3.0932710339 3.0932710339 3.0932710339 3.0932710339 3.0932710339 3.0932710339 3.0932710339 
3.0932710339 3.0932710339 3.0932710339 3.0932710339 3.0932710339 3.0932710339 3.0932710339 3.0932710339 3.0932710339 
3.0932710339 3.0932710339 3.0932710339 3.0932710339 3.0932710339 3.0932710339 3.0932710339 3.0932710339 3.0932710339 
3.0932710339 3.0932710339 3.0932710339 3.0932710339 3.0932710339 3.0932710339 3.0932710339 3.0932710339 3.0932710339 
3.0932710339 3.0932710339 3.0932710339 3.0932710339 3.0932710339 3.0932710339 3.0932710339 3.0932710339 3.0932710339 
3.0932710339 3.0786768432 3.0786768432 3.0786768432 3.0786768432 3.0786768432 3.0932710339 3.1078652246 3.1078652246 
3.1078652246 3.1078652246 3.1078652246 3.1078652246 3.1078652246 3.1078652246 3.1078652246 3.1078652246 3.0932710339 
3.0786768432 3.0786768432 3.0786768432 3.0786768432 3.0932710339 3.1078652246 3.1078652246 3.1078652246 3.1078652246 
3.0932710339 3.0786768432 3.0786768432 3.0786768432 3.0786768432 3.0786768432 3.0932710339 3.1078652246 3.1078652246 
3.1078652246 3.0932710339 3.0786768432 3.0786768432 3.0786768432 3.0786768432 3.0932710339 3.0932710339 3.1078652246 
3.1078652246 3.1078652246 3.0932710339 3.0786768432 3.0786768432 3.0786768432 3.0786768432 3.0932710339 3.1078652246 
3.1078652246 3.1078652246 3.0932710339 3.0786768432 3.0786768432 3.0786768432 3.0786768432 3.0786768432 3.0932710339 
3.1078652246 3.1078652246 3.1078652246 3.0932710339 3.0786768432 3.0786768432 3.0786768432 3.0786768432 3.0786768432 
3.0932710339 3.1078652246 3.1078652246 3.1078652246 3.0932710339 3.0786768432 3.0786768432 3.0932710339 3.1078652246 
3.1078652246 3.1078652246 3.0932710339 3.0786768432 3.0786768432 3.0786768432 3.0786768432 3.0932710339 3.1078652246 
3.1078652246 3.1078652246 3.0932710339 3.0786768432 3.0786768432 3.0932710339 3.1078652246 3.1078652246 3.1078652246 
3.0932710339 3.0786768432 3.0786768432 3.0932710339 3.1078652246 3.1078652246 3.0932710339 3.0786768432 3.0786768432 
3.0786768432 3.0786768432 3.0932710339 3.1078652246 3.1078652246 3.1078652246 3.0932710339 3.0786768432 3.0786768432 
3.0932710339 3.1078652246 3.1078652246 3.1078652246 3.1078652246 3.0932710339 3.0786768432 3.0786768432 3.0932710339 
3.0932710339 3.1078652246 3.1078652246 3.0932710339 3.0786768432 3.0786768432 3.0786768432 3.0786768432 3.0932710339 
3.1078652246 3.1078652246 3.1078652246 3.0932710339 3.0786768432 3.0786768432 3.0932710339 3.1078652246 3.1078652246 
3.0932710339 3.0786768432 3.0786768432 3.0932710339 3.1078652246 3.1078652246 3.1078652246 3.0932710339 3.0786768432 
3.0786768432 3.0786768432 3.0786768432 3.0932710339 3.1078652246 3.1078652246 3.0932710339 3.0786768432 3.0786768432 
3.0932710339 3.1078652246 3.1078652246 3.1078652246 3.1078652246 3.0932710339 3.0786768432 3.0786768432 3.0932710339 
3.0932710339 3.1078652246 3.1078652246 3.0932710339 3.0786768432 3.0786768432 3.0786768432 3.0786768432 3.0932710339 
3.1078652246 3.1078652246 3.0932710339 3.0786768432 3.0786768432 3.0932710339 3.1078652246 3.1078652246 3.1078652246 
3.0932710339 3.0786768432 3.0786768432 3.0932710339 3.1078652246 3.1078652246 3.1078652246 3.0932710339 3.0932710339 
3.0786768432 3.0786768432 3.0786768432 3.0932710339 3.1078652246 3.1078652246 3.0932710339 3.0786768432 3.0786768432 
3.0932710339 3.1078652246 3.1078652246 3.0932710339 3.0786768432 3.0786768432 3.0932710339 3.1078652246 3.1078652246 
3.1078652246 3.1078652246 3.0932710339 3.0786768432 3.0786768432 3.0786768432 3.0932710339 3.1078652246 3.1078652246 
3.0932710339 3.0786768432 3.0786768432 3.0932710339 3.1078652246 3.1078652246 3.0932710339 3.0786768432 3.0786768432 
3.0786768432 3.0932710339 3.1078652246 3.1078652246 3.0932710339 3.0786768432 3.0786768432 3.0786768432 3.0932710339 
3.0932710339 3.1078652246 3.1078652246 3.1078652246 3.0932710339 3.0786768432 3.0786768432 3.0932710339 3.1078652246 
3.1078652246 3.0932710339 3.0786768432 3.0786768432 3.0932710339 3.1078652246 3.1078652246 3.0932710339 3.0786768432 
3.0786768432 3.0932710339 3.1078652246 3.1078652246 3.1078652246 3.0932710339 3.0786768432 3.0786768432 3.0932710339 
3.1078652246 3.1078652246 3.1078652246 3.0932710339 3.0786768432 3.0786768432 3.0932710339 3.1078652246 3.1078652246 
3.0932710339 3.0786768432 3.0786768432 3.0786768432 3.0932710339 3.1078652246 3.1078652246 3.1078652246 3.0932710339 
3.0786768432 3.0786768432 3.0932710339 3.1078652246 3.1078652246 3.0932710339 3.0786768432 3.0786768432 3.0932710339 
3.1078652246 3.1078652246 3.0932710339 3.0786768432 3.0786768432 3.0786768432 3.0932710339 3.1078652246 3.1224594153 
3.1224594153 3.1224594153 3.1078652246 3.1078652246 3.0932710339 3.0786768432 3.0786768432 3.0932710339 3.0932710339 
3.1078652246 3.1078652246 3.1224594153 3.1224594153 3.1224594153 3.1224594153 3.1224594153 3.1224594153 3.1078652246 
3.0932710339 3.0786768432 3.0786768432 3.0932710339 3.1078652246 3.1224594153 3.1224594153 3.1224594153 3.1224594153 
3.1224594153 3.1224594153 3.1078652246 3.0932710339 3.0786768432 3.0786768432 3.0932710339 3.1078652246 3.1224594153 
3.1224594153 3.1224594153 3.1224594153 3.1078652246 3.0932710339 3.0786768432 3.0786768432 3.0932710339 3.1078652246 
3.1224594153 3.1224594153 3.1224594153 3.1078652246 3.0932710339 3.0786768432 3.0786768432 3.0932710339 3.1078652246 
3.1078652246 3.1224594153 3.1224594153 3.1224594153 3.1078652246 3.0932710339 3.0786768432 3.0786768432 3.0932710339 
3.1078652246 3.1224594153 3.1224594153 3.1224594153 3.1224594153 3.1078652246 3.0932710339 3.0932710339 3.0786768432 
3.0786768432 3.0932710339 3.1078652246 3.1224594153 3.1224594153 3.1078652246 3.1078652246 3.0932710339 3.0786768432 
3.0786768432 3.0932710339 3.0932710339 3.1078652246 3.1078652246 3.1224594153 3.1224594153 3.1224594153 3.1078652246 
3.0932710339 3.0786768432 3.0786768432 3.0932710339 3.1078652246 3.1224594153 3.1224594153 3.1224594153 3.1078652246 
3.0932710339 3.0786768432 3.0786768432 3.0786768432 3.0786768432 3.0786768432 3.0786768432 3.0786768432 3.0786768432 
3.0932710339 3.1078652246 3.1224594153 3.1224594153 3.1078652246 3.0932710339 3.0786768432 3.0786768432 3.0786768432 
3.0786768432 3.0786768432 3.0640826525 3.0640826525 3.0640826525 3.0640826525 3.0640826525 3.0640826525 3.0640826525 
3.0640826525 3.0786768432 3.0932710339 3.1078652246 3.1224594153 3.1224594153 3.1224594153 3.1224594153 3.1078652246 
3.0932710339 3.0932710339 3.0786768432 3.0786768432 3.0786768432 3.0786768432 3.0640826525 3.0640826525 3.0640826525 
3.0640826525 3.0786768432 3.0932710339 3.1078652246 3.1224594153 3.1224594153 3.1078652246 3.0932710339 3.0786768432 
3.0786768432 3.0786768432 3.0786768432 3.0786768432 3.0786768432 3.0640826525 3.0640826525 3.0640826525 3.0786768432 
3.0932710339 3.1078652246 3.1078652246 3.1224594153 3.1224594153 3.1224594153 3.1078652246 3.0932710339 3.0786768432 
3.0786768432 3.0786768432 3.0786768432 3.0786768432 3.0640826525 3.0640826525 3.0640826525 3.0786768432 3.0932710339 
3.1078652246 3.1224594153 3.1224594153 3.1224594153 3.1224594153 3.1078652246 3.0932710339 3.0932710339 3.0786768432 
3.0786768432 3.0786768432 3.0786768432 3.0786768432 3.0640826525 3.0640826525 3.0640826525 3.0786768432 3.0932710339 
3.1078652246 3.1224594153 3.1224594153 3.1078652246 3.1078652246 3.0932710339 3.0786768432 3.0786768432 3.0786768432 
3.0786768432 3.0786768432 3.0640826525 3.0640826525 3.0640826525 3.0786768432 3.0932710339 3.1078652246 3.1224594153 
3.1224594153 3.1078652246 3.0932710339 3.0786768432 3.0786768432 3.0786768432 3.0786768432 3.0640826525 3.0640826525 
3.0786768432 3.0932710339 3.1078652246 3.1078652246 3.1224594153 3.1224594153 3.1224594153 3.1078652246 3.0932710339 
3.0786768432 3.0786768432 3.0786768432 3.0786768432 3.0786768432 3.0640826525 3.0640826525 3.0640826525 3.0640826525 
3.0786768432 3.0932710339 3.1078652246 3.1224594153 3.1224594153 3.1224594153 3.1078652246 3.0932710339 3.0786768432 
3.0786768432 3.0786768432 3.0786768432 3.0640826525 3.0640826525 3.0786768432 3.0932710339 3.0932710339 3.1078652246 
3.1224594153 3.1224594153 3.1224594153 3.1078652246 3.0932710339 3.0786768432 3.0786768432 3.0786768432 3.0640826525 
3.0640826525 3.0640826525 3.0640826525 3.0786768432 3.0932710339 3.1078652246 3.1224594153 3.1224594153 3.1078652246 
3.0932710339 3.0786768432 3.0786768432 3.0786768432 3.0640826525 3.0640826525 3.0786768432 3.0932710339 3.1078652246 
3.1224594153 3.137053606 3.137053606 3.137053606 3.1224594153 3.1078652246 3.0932710339 3.0786768432 3.0786768432 
3.0786768432 3.0786768432 3.0640826525 3.0640826525 3.0786768432 3.0932710339 3.1078652246 3.1078652246 3.1224594153 
3.1224594153 3.137053606 3.137053606 3.137053606 3.137053606 3.1224594153 3.1224594153 3.1078652246 3.0932710339 
3.0786768432 3.0786768432 3.0786768432 3.0640826525 3.0640826525 3.0786768432 3.0932710339 3.1078652246 3.1224594153 
3.137053606 3.137053606 3.137053606 3.137053606 3.1224594153 3.1078652246 3.0932710339 3.0786768432 3.0786768432 
3.0786768432 3.0640826525 3.0640826525 3.0786768432 3.0932710339 3.1078652246 3.1224594153 3.1224594153 3.137053606 
3.137053606 3.137053606 3.137053606 3.1224594153 3.1078652246 3.0932710339 3.0786768432 3.0786768432 3.0786768432 
3.0786768432 3.0786768432 3.0640826525 3.0640826525 3.0786768432 3.0932710339 3.1078652246 3.1078652246 3.1224594153 
3.137053606 3.137053606 3.137053606 3.1224594153 3.1078652246 3.1078652246 3.0932710339 3.0786768432 3.0786768432 
3.0786768432 3.0640826525 3.0640826525 3.0640826525 3.0640826525 3.0786768432 3.0932710339 3.1078652246 3.1224594153 
3.137053606 3.137053606 3.137053606 3.1224594153 3.1078652246 3.0932710339 3.0786768432 3.0786768432 3.0786768432 
3.0640826525 3.0640826525 3.0786768432 3.0932710339 3.0932710339 3.1078652246 3.1224594153 3.1224594153 3.137053606 
3.137053606 3.137053606 3.1224594153 3.1078652246 3.0932710339 3.0786768432 3.0786768432 3.0786768432 3.0786768432 
3.0640826525 3.0640826525 3.0786768432 3.0932710339 3.1078652246 3.1224594153 3.137053606 3.137053606 3.137053606 
3.137053606 3.1224594153 3.1224594153 3.1078652246 3.0932710339 3.0786768432 3.0786768432 3.0786768432 3.0640826525 
3.0494884618 3.0494884618 3.0494884618 3.0494884618 3.0494884618 3.0640826525 3.0786768432 3.0932710339 3.1078652246 
3.1224594153 3.137053606 3.137053606 3.1224594153 3.1078652246 3.0932710339 3.0786768432 3.0786768432 3.0786768432 
3.0640826525 3.0494884618 3.0494884618 3.0494884618 3.0494884618 3.0640826525 3.0786768432 3.0932710339 3.1078652246 
3.1078652246 3.1224594153 3.1224594153 3.137053606 3.137053606 3.137053606 3.1224594153 3.1078652246 3.0932710339 
3.0786768432 3.0786768432 3.0786768432 3.0786768432 3.0786768432 3.0640826525 3.0640826525 3.0494884618 3.0494884618 
3.0494884618 3.0640826525 3.0786768432 3.0932710339 3.1078652246 3.1224594153 3.137053606 3.137053606 3.137053606 
3.137053606 3.1224594153 3.1078652246 3.0932710339 3.0932710339 3.0786768432 3.0786768432 3.0786768432 3.0640826525 
3.0494884618 3.0494884618 3.0494884618 3.0640826525 3.0786768432 3.0932710339 3.0932710339 3.1078652246 3.1224594153 
3.137053606 3.137053606 3.1224594153 3.1078652246 3.0932710339 3.0786768432 3.0786768432 3.0786768432 3.0786768432 
3.0640826525 3.0494884618 3.0494884618 3.0494884618 3.0640826525 3.0786768432 3.0932710339 3.1078652246 3.1078652246 
3.1224594153 3.1224594153 3.137053606 3.137053606 3.137053606 3.1224594153 3.1078652246 3.0932710339 3.0786768432 
3.0786768432 3.0786768432 3.0786768432 3.0640826525 3.0494884618 3.0494884618 3.0494884618 3.0640826525 3.0786768432 
3.0932710339 3.1078652246 3.1224594153 3.137053606 3.137053606 3.1224594153 3.1078652246 3.0932710339 3.0786768432 
3.0786768432 3.0786768432 3.0640826525 3.0494884618 3.0494884618 3.0494884618 3.0640826525 3.0786768432 3.0932710339 
3.1078652246 3.1224594153 3.137053606 3.137053606 3.1224594153 3.1078652246 3.0932710339 3.0786768432 3.0786768432 
3.0786768432 3.0786768432 3.0640826525 3.0494884618 3.0494884618 3.0640826525 3.0786768432 3.0786768432 3.0932710339 
3.1078652246 3.1078652246 3.1224594153 3.137053606 3.137053606 3.137053606 3.1224594153 3.1078652246 3.0932710339 
3.0786768432 3.0786768432 3.0786768432 3.0640826525 3.0494884618 3.0494884618 3.0640826525 3.0786768432 3.0932710339 
3.1078652246 3.1224594153 3.1224594153 3.137053606 3.137053606 3.137053606 3.1224594153 3.1078652246 3.0932710339 
3.0786768432 3.0786768432 3.0786768432 3.0786768432 3.0786768432 3.0640826525 3.0494884618 3.0494884618 3.0494884618 
3.0640826525 3.0786768432 3.0932710339 3.0932710339 3.1078652246 3.1224594153 3.137053606 3.137053606 3.1224594153 
3.1078652246 3.0932710339 3.0786768432 3.0786768432 3.0786768432 3.0786768432 3.0640826525 3.0640826525 3.0494884618 
3.0348942711 3.0348942711 3.0348942711 3.0348942711 3.0494884618 3.0640826525 3.0786768432 3.0932710339 3.1078652246 
3.1224594153 3.137053606 3.137053606 3.137053606 3.1224594153 3.1078652246 3.1078652246 3.0932710339 3.0786768432 
3.0786768432 3.0786768432 3.0786768432 3.0640826525 3.0494884618 3.0348942711 3.0348942711 3.0348942711 3.0348942711 
3.0494884618 3.0494884618 3.0640826525 3.0786768432 3.0932710339 3.1078652246 3.1224594153 3.137053606 3.137053606 
3.1224594153 3.1078652246 3.0932710339 3.0786768432 3.0640826525 3.0640826525 3.0640826525 3.0640826525 3.0640826525 
3.0640826525 3.0786768432 3.0786768432 3.0640826525 3.0494884618 3.0348942711 3.0348942711 3.0348942711 3.0348942711 
3.0494884618 3.0640826525 3.0786768432 3.0932710339 3.1078652246 3.1078652246 3.1224594153 3.1224594153 3.137053606 
3.137053606 3.1224594153 3.1078652246 3.0932710339 3.0786768432 3.0640826525 3.0640826525 3.0640826525 3.0786768432 
3.0786768432 3.0786768432 3.0786768432 3.0640826525 3.0494884618 3.0348942711 3.0348942711 3.0494884618 3.0640826525 
3.0786768432 3.0932710339 3.1078652246 3.1224594153 3.1224594153 3.137053606 3.137053606 3.137053606 3.1224594153 
3.1078652246 3.0932710339 3.0786768432 3.0786768432 3.0640826525 3.0640826525 3.0640826525 3.0786768432 3.0786768432 
3.0786768432 3.0786768432 3.0786768432 3.0640826525 3.0494884618 3.0348942711 3.0348942711 3.0494884618 3.0640826525 
3.0786768432 3.0932710339 3.1078652246 3.1224594153 3.137053606 3.137053606 3.137053606 3.1224594153 3.1078652246 
3.0932710339 3.0932710339 3.0786768432 3.0640826525 3.0640826525 3.0640826525 3.0640826525 3.0786768432 3.0786768432 
3.0786768432 3.0786768432 3.0786768432 3.0640826525 3.0494884618 3.0494884618 3.0348942711 3.0348942711 3.0203000804 
3.0203000804 3.0203000804 3.0203000804 3.0348942711 3.0348942711 3.0494884618 3.0640826525 3.0786768432 3.0786768432 
3.0932710339 3.1078652246 3.1224594153 3.137053606 2.9619233175 2.9619233175 2.9765175082 2.9765175082 2.991111699 
2.991111699 3.0057058897 3.0057058897 3.0203000804 3.0203000804 3.0348942711 3.0348942711 3.0494884618 3.0494884618 
3.0640826525 3.0640826525 3.0786768432 3.0786768432 3.0932710339 3.0932710339 3.1078652246 3.1078652246 3.1224594153 
3.1224594153 3.137053606 3.137053606 2.9619233175 2.9765175082 2.991111699 3.0057058897 3.0203000804 3.0348942711 
3.0494884618 3.0640826525 3.0786768432 3.0932710339 3.1078652246 3.1224594153 3.137053606 2.9619233175 2.9765175082 
2.991111699 3.0057058897 3.0203000804 3.0348942711 3.0494884618 3.0640826525 3.0786768432 3.0932710339 3.1078652246 
3.1224594153 3.137053606 2.9619233175 2.9765175082 2.991111699 3.0057058897 3.0203000804 3.0348942711 3.0494884618 
3.0640826525 3.0786768432 3.0932710339 3.1078652246 3.1224594153 3.137053606 2.9619233175 2.9765175082 2.991111699 
3.0057058897 3.0203000804 3.0348942711 3.0494884618 3.0640826525 3.0786768432 3.0932710339 3.1078652246 3.1224594153 
3.137053606 2.9619233175 2.9765175082 2.991111699 3.0057058897 3.0203000804 3.0348942711 3.0494884618 3.0640826525 
3.0786768432 3.0932710339 3.1078652246 3.1224594153 3.137053606 2.9619233175 2.9765175082 2.991111699 3.0057058897 
3.0203000804 3.0348942711 3.0494884618 3.0640826525 3.0786768432 3.0932710339 3.1078652246 3.1224594153 3.137053606 
2.9619233175 2.9765175082 2.991111699 3.0057058897 3.0203000804 3.0348942711 3.0494884618 3.0640826525 3.0786768432 
3.0932710339 3.1078652246 3.1224594153 3.137053606 2.9619233175 2.9765175082 2.991111699 3.0057058897 3.0203000804 
3.0348942711 3.0494884618 3.0640826525 3.0786768432 3.0932710339 3.1078652246 3.1224594153 3.137053606 2.9619233175 
2.9765175082 2.991111699 3.0057058897 3.0203000804 3.0348942711 3.0494884618 3.0640826525 3.0786768432 3.0932710339 
3.1078652246 3.1224594153 3.137053606 3.137053606 3.1224594153 3.1224594153 3.1078652246 3.0932710339 3.0786768432 
3.0640826525 3.0640826525 3.0786768432 3.0786768432 3.0640826525 3.0494884618 3.0348942711 3.0203000804 3.0203000804 
3.0203000804 3.0348942711 3.0494884618 3.0640826525 3.0786768432 3.0932710339 3.1078652246 2.9619233175 2.9619233175 
2.9765175082 2.9765175082 2.991111699 2.991111699 3.0057058897 3.0057058897 3.0203000804 3.0203000804 3.0348942711 