# vtk DataFile Version 4.2
vtk output
ASCII
DATASET UNSTRUCTURED_GRID
POINTS 1740 double
2144.07 -94.44003 0 2911 0 0 16.54298 -37.82236 0 
5.09149 -21.30132 0 1.27433 -10.75385 0 0 0 0 
2.54575 15.14293 0 6.36291 23.76126 0 14.00014 34.89063 0 
30.50239 50.70793 0 33.39435 -52.93479 0 2050.91 -103.7862 0 
60.1465 -69.72165 0 88.83633 -83.2817 0 118.7656 -94.71113 0 
153.4168 -105.7022 0 199.5806 -117.771 0 261.4466 -130.7139 0 
345.846 -144.1892 0 460.3522 -157.0592 0 608.4185 -167.1903 0 
783.2313 -172.4016 0 941.0559 -172.4533 0 1063.409 -170.1096 0 
1164.153 -166.8746 0 1263.449 -162.682 0 1375.468 -156.8941 0 
1513.293 -148.414 0 1665.281 -137.5317 0 1791.864 -127.3721 0 
2195.451 -89.09491 0 2273.924 -80.67077 0 2383.731 -68.3513 0 
2517.64 -52.47337 0 2649.227 -35.9232 0 2740.773 -23.82991 0 
2804.387 -15.13419 0 2848.802 -8.916218 0 2881.944 -4.196067 0 
56.61447 67.79801 0 84.09687 81.25172 0 112.4783 92.48395 0 
142.1748 102.3504 0 174.8563 111.6168 0 213.124 120.8806 0 
260.3759 130.5151 0 324.6539 141.1779 0 418.1422 152.9178 0 
535.6656 162.9871 0 690.9154 170.4255 0 902.6513 172.7852 0 
1100.32 169.0517 0 1270.99 162.3262 0 1462.794 151.6837 0 
1631.287 140.0952 0 1747.993 131 0 1922.788 115.9027 0 
2069.56 101.951 0 2128.804 96.0021 0 2297.147 78.11721 0 
2414.379 64.80104 0 2554.023 47.99319 0 2673.693 32.73885 0 
2757.97 21.50315 0 2814.297 13.7575 0 2852.02 8.460961 0 
2882.272 4.148909 0 1791.052 127.4402 0 1366.894 157.3738 0 
1444.38 -152.8302 0 1547.039 146.1296 0 1589.287 -143.1614 0 
1878.731 119.8675 0 1997.072 108.9828 0 1185.654 166.0472 0 
1882.536 -119.5292 0 1971.323 -111.4145 0 1684.777 136.0292 0 
2099.317 -98.9855 0 2234.809 84.9091 0 2181.695 90.53914 0 
1728.573 -132.5703 0 1718.815 133.3509 0 1834.825 123.7132 0 
1960.305 112.4444 0 2033.69 105.4648 0 2099.184 98.99892 0 
2214.291 -75.081236888 396.8421 2955.512 15.526029661 396.8421 158.0786 -30.004591907 396.8421 
147.0109 -14.174849813 396.8421 143.3217 -4.0488181735 396.8421 142.09 6.2901609036 396.8421 
144.5505 20.873352919 396.8421 148.2398 29.18639715 396.8421 155.621 39.93672316 396.8421 
171.5701 55.246853042 396.8421 174.3652 -44.448035194 396.8421 2124.254 -84.229356362 396.8421 
200.2206 -60.445280944 396.8421 227.9488 -73.326184608 396.8421 256.8748 -84.149575093 396.8421 
290.3647 -94.523509704 396.8421 334.981 -105.86719269 396.8421 394.7733 -117.96073549 396.8421 
476.3434 -130.43698973 396.8421 587.0114 -142.16223509 396.8421 730.1145 -151.07534529 396.8421 
899.0676 -155.13651203 396.8421 1051.602 -154.36499777 396.8421 1169.853 -151.50411498 396.8421 
1267.221 -147.91555711 396.8421 1363.188 -143.4348416 396.8421 1471.452 -137.39068743 396.8421 
1604.657 -128.69278451 396.8421 1751.55 -117.69258727 396.8421 1873.891 -107.53261889 396.8421 
2263.949 -69.868004381 396.8421 2339.792 -61.677113321 396.8421 2445.918 -49.750515588 396.8421 
2575.338 -34.460964828 396.8421 2702.515 -18.611958357 396.8421 2790.992 -7.082013465 396.8421 
2852.473 1.1842354013 396.8421 2895.4 7.0833122755 396.8421 2927.431 11.555120901 396.8421 
196.807 71.835422058 396.8421 223.3682 84.933299615 396.8421 250.7983 95.899299874 396.8421 
279.4994 105.55899814 396.8421 311.0855 114.65873056 396.8421 348.0705 123.78806838 396.8421 
393.7383 133.32586496 396.8421 455.8617 143.95093723 396.8421 546.2162 155.7803412 396.8421 
659.8003 166.14006669 396.8421 809.846 174.17851451 396.8421 1014.485 177.622776 396.8421 
1205.528 175.0742565 396.8421 1370.477 169.44528799 396.8421 1555.851 160.06623471 396.8421 
1718.696 149.5807426 396.8421 1831.49 141.23190305 396.8421 2000.426 127.20720437 396.8421 
2142.278 114.10045178 396.8421 2199.537 108.47554004 396.8421 2362.236 91.449809987 396.8421 
2475.539 78.672870523 396.8421 2610.501 62.437628006 396.8421 2726.16 47.609400587 396.8421 
2807.613 36.636103122 396.8421 2862.05 29.047848005 396.8421 2898.509 23.848488227 396.8421 
2927.749 19.609533196 396.8421 1873.106 137.94202256 396.8421 1463.165 165.12324373 396.8421 
1538.054 -133.20465902 396.8421 1637.272 155.06621838 396.8421 1678.104 -123.36525903 396.8421 
1957.846 130.9077685 396.8421 2072.22 120.72218911 396.8421 1288 172.61236262 396.8421 
1961.524 -99.74484236 396.8421 2047.334 -91.729550213 396.8421 1770.393 145.85929776 396.8421 
2171.038 -79.525081687 396.8421 2301.989 97.93467553 396.8421 2250.655 103.29264728 396.8421 
1812.721 -112.71979333 396.8421 1803.29 143.39804327 396.8421 1915.411 134.48574555 396.8421 
2036.686 123.97019538 396.8421 2107.61 117.41315082 396.8421 2170.909 111.31172167 396.8421 
2284.511 -59.150332346 793.6842 3000.027 27.856760419 793.6842 299.6143 -21.790048703 793.6842 
288.9304 -6.6034418288 793.6842 285.3691 3.1263126638 793.6842 284.1801 13.071995425 793.6842 
286.5551 27.119160389 793.6842 290.1167 35.136827455 793.6842 297.2417 45.516721376 793.6842 
312.6379 60.323313928 793.6842 315.336 -35.619069207 793.6842 2197.597 -68.036921556 793.6842 
340.2947 -50.901272735 793.6842 367.0612 -63.176150682 793.6842 394.9839 -73.466006825 793.6842 
427.3123 -83.304008351 793.6842 470.3812 -94.028251943 793.6842 528.0998 -105.41143198 793.6842 
606.8411 -117.07578326 793.6842 713.6708 -127.90785504 793.6842 851.8104 -135.92481682 793.6842 
1014.904 -139.20938184 793.6842 1162.147 -137.94278734 793.6842 1276.298 -134.81047732 793.6842 
1370.288 -131.06366687 793.6842 1462.927 -126.47981641 793.6842 1567.436 -120.37819863 793.6842 
1696.021 -111.68955218 793.6842 1837.82 -100.79643325 793.6842 1955.917 -90.800011975 793.6842 
2332.447 -54.096753206 793.6842 2405.659 -46.17102623 793.6842 2508.105 -34.659586142 793.6842 
2633.037 -19.947743483 793.6842 2755.801 -4.7457122548 793.6842 2841.209 6.2858674196 793.6842 
2900.561 14.181664085 793.6842 2941.997 19.81008826 793.6842 2972.917 24.073367889 793.6842 
336.9995 76.401143017 793.6842 362.6396 89.124603641 793.6842 389.1182 99.799469032 793.6842 
416.8239 109.2221215 793.6842 447.3145 118.11782036 793.6842 483.0167 127.06457434 793.6842 
527.1009 136.44077128 793.6842 587.0697 146.93183727 793.6842 674.2905 158.69714691 793.6842 
783.9349 169.13567288 793.6842 928.7766 177.47019307 793.6842 1126.317 181.55573066 793.6842 
1310.735 179.76520272 793.6842 1469.963 174.86653972 793.6842 1648.908 166.35507622 793.6842 
1806.105 156.64963267 793.6842 1914.987 148.84166002 793.6842 2078.064 135.61745154 793.6842 
2214.996 123.16642278 793.6842 2270.269 117.80058814 793.6842 2427.326 101.49003055 793.6842 
2536.699 89.190704466 793.6842 2666.98 73.500525108 793.6842 2778.628 59.117710832 793.6842 
2857.255 48.445766134 793.6842 2909.806 41.053210185 793.6842 2945.001 35.982370953 793.6842 
2973.224 31.845016803 793.6842 1955.16 145.7503366 793.6842 1559.437 170.97401091 793.6842 
1631.729 -116.18605362 793.6842 1727.505 161.74418372 793.6842 1766.921 -106.4031878 793.6842 
2036.96 139.11781073 793.6842 2147.368 129.46654176 793.6842 1390.347 177.66181488 793.6842 
2040.511 -83.17001511 793.6842 2123.346 -75.34193675 793.6842 1856.009 153.17639605 793.6842 
2242.759 -63.464055096 793.6842 2369.167 107.71388533 793.6842 2319.614 112.84584548 793.6842 
1896.869 -95.897150737 793.6842 1887.765 150.87287152 793.6842 1995.998 142.49517266 793.6842 
2113.066 132.54977921 793.6842 2181.531 126.32058055 793.6842 2242.634 120.50767583 793.6842 
2354.732 -45.924996771 1190.526 3044.539 37.579724976 1190.526 441.15 -13.572219888 1190.526 
430.8497 1.0071046056 1190.526 427.4164 10.359079316 1190.526 426.2701 19.927103354 1190.526 
428.5601 33.454936977 1190.526 431.9934 41.183836688 1190.526 438.8627 51.19857468 1190.526 
453.7057 65.502178577 1190.526 456.3069 -26.827912161 1190.526 2270.94 -54.504151728 1190.526 
480.3688 -41.451360051 1190.526 506.1737 -53.175414822 1190.526 533.0934 -62.986407037 1190.526 
564.26 -72.349545582 1190.526 605.7815 -82.533348818 1190.526 661.4265 -93.309276642 1190.526 
737.3385 -104.29949147 1190.526 840.33 -114.42106444 1190.526 973.5064 -121.77258607 1190.526 
1130.74 -124.54464327 1190.526 1272.693 -123.01174711 1190.526 1382.742 -119.77813168 1190.526 
1473.356 -116.00763686 1190.526 1562.666 -111.44765754 1190.526 1663.42 -105.42427825 1190.526 
1787.385 -96.900188619 1190.526 1924.09 -86.267957009 1190.526 2037.944 -76.547687285 1190.526 
2400.946 -41.051731356 1190.526 2471.527 -33.416177156 1190.526 2570.292 -22.340657694 1190.526 
2690.735 -8.2080424271 1190.526 2809.091 6.3728092028 1190.526 2891.43 16.941067109 1190.526 
2948.647 24.499415654 1190.526 2988.597 29.884543873 1190.526 3018.403 33.962131145 1190.526 
477.1918 81.05958309 1190.526 501.9109 93.392149479 1190.526 527.4382 103.75500543 1190.526 
554.1485 112.91578865 1190.526 583.5435 121.5774717 1190.526 617.963 130.30394022 1190.526 
660.4633 139.46843866 1190.526 718.2775 149.75235042 1190.526 802.3645 161.33893706 1190.526 
908.0698 171.70103198 1190.526 1047.707 180.11268566 1190.526 1238.151 184.52576954 1190.526 
1415.942 183.19509781 1190.526 1569.449 178.77316023 1190.526 1741.965 170.85693844 1190.526 
1893.514 161.70948923 1190.526 1998.484 154.30112817 1190.526 2155.702 141.68946076 1190.526 
2287.714 129.7619581 1190.526 2341.001 124.60932355 1190.526 2492.415 108.90954973 1190.526 
2597.858 97.039867209 1190.526 2723.46 81.866537802 1190.526 2831.095 67.931983426 1190.526 
2906.899 57.579329995 1190.526 2957.56 50.402161642 1190.526 2991.49 45.4765454 1190.526 
3018.699 41.4562684 1190.526 2037.214 151.35936551 1190.526 1655.708 175.17187432 1190.526 
1725.403 -101.30537202 1190.526 1817.738 166.52174111 1190.526 1855.738 -91.734305365 1190.526 
2116.075 145.03415873 1190.526 2222.516 135.80259989 1190.526 1492.694 181.32259252 1190.526 
2119.498 -69.146473776 1190.526 2199.357 -61.566668763 1190.526 1941.625 158.41820236 1190.526 
2314.479 -50.08787774 1190.526 2436.346 114.90640818 1190.526 2388.573 119.84573398 1190.526 
1981.017 -81.500216679 1190.526 1972.24 156.23154028 1190.526 2076.584 148.25711301 1190.526 
[...]
POINT_DATA 1740
FIELD FieldData 1
Pressure 1 1740 double
3.1046791243 3.0186018762 3.0095102667 2.9857668444 2.9789923485 2.959210087 2.9717170549 2.9889507398 3.0200252566 
3.0340673121 3.0113964903 3.1086959931 3.0339533435 3.0485219356 3.0658429003 3.0655080799 3.0826779142 3.0877532457 
3.1091548474 3.1139870729 3.1329285114 3.1414881393 3.143388332 3.149736182 3.1441928381 3.1403070034 3.1367107551 
3.1328227303 3.1257583926 3.1197299571 3.102164172 3.0987157698 3.0932170112 3.0850824154 3.0742517773 3.0641996962 
3.0543609261 3.0456461767 3.0377361161 3.069922281 3.081548752 3.0939312856 3.1068398887 3.112897646 3.1197050942 
3.1268560298 3.1346196672 3.1502293948 3.1627216622 3.1790557054 3.189580138 3.1964156966 3.2022157192 3.2077345603 
3.2120201681 3.2154160461 3.2161974878 3.1168341674 3.0993915047 3.0876443466 3.0811969162 3.0721567423 3.0623148278 
3.0518587278 3.0413919552 3.0337357839 3.0324984031 3.215254041 3.2056419836 3.1353330701 3.2094930929 3.1291842598 
3.21585416 3.2165080044 3.2034812831 3.116019129 3.1122519198 3.2134474914 3.1065233833 3.0919867259 3.0946162784 
3.1224270656 3.2150178298 3.2152516533 3.2166501714 3.2323580681 3.0978181918 3.1016613175 3.0235621717 3.0276907732 
3.0011321281 3.0078133041 2.9862623852 2.9932725079 3.0050258628 3.0336873444 3.0520925562 3.035943792 3.105981897 
3.0562526929 3.0688330337 3.0819212257 3.0859730338 3.101363485 3.1109453733 3.1243015954 3.1293470638 3.1401539654 
3.1442718452 3.1480498278 3.1487497882 3.1436314769 3.1390357063 3.1332266072 3.1291372842 3.122544846 3.1168911812 
3.099388056 3.0952864369 3.0897194122 3.0816202382 3.0707905471 3.0607849116 3.0510594721 3.0434667336 3.0285798959 
3.0851394849 3.1061181826 3.1180176216 3.1266797082 3.1356119099 3.1404770314 3.1458936943 3.1558067686 3.1677451833 
3.1768170164 3.1857592599 3.1934609998 3.2000230565 3.2063870488 3.2096298982 3.2124301564 3.2156760902 3.21805605 
3.0966683476 3.0986321457 3.0911415557 3.0850150952 3.0765465265 3.0656895238 3.0553442845 3.0452811142 3.0386099967 
3.0391564129 3.2161571595 3.2078660421 3.1321671685 3.212394889 3.1254849371 3.2173115553 3.2141548391 3.2051433537 
3.1130764259 3.1093522066 3.2141620908 3.1039702048 3.0943762094 3.0968437361 3.1197583848 3.2149197572 3.2159933981 
3.218349511 3.1404320516 3.0993236754 3.099532387 3.0237808213 3.0279979335 3.0003670168 3.0018027922 2.9842575259 
2.9959065775 3.0096451994 3.0387442026 3.059846338 3.0445139878 3.1037559192 3.0593975021 3.0784426989 3.0963911249 
3.102771327 3.1156238484 3.1239902397 3.1366135305 3.1427504165 3.1498505118 3.152345062 3.1516706093 3.1499174656 
3.1431569544 3.1372689126 3.1315097276 3.1259374556 3.1201181141 3.1149473777 3.0972275041 3.0933805712 3.0875938862 
3.0797309003 3.0687759156 3.0586527362 3.0495295196 3.0422806571 3.0290184867 3.0924292173 3.1141117373 3.1321148311 
3.1412133049 3.1523319969 3.16054215 3.1703472851 3.1745570942 3.1828596774 3.1927688701 3.1979259607 3.203326775 
3.2061337811 3.2128117222 3.215267794 3.2159913264 3.2180251049 3.2208947801 3.0958621306 3.095085213 3.0918468862 
3.0864361523 3.0783993886 3.0675170008 3.0574473031 3.0475613504 3.0403269115 3.0416132464 3.2186839305 3.214392337 
3.1292884768 3.2161769943 3.1228943323 3.2194201029 3.1251047005 3.210302977 3.1110174097 3.1071612083 3.2166073544 
3.1018793876 3.0943708084 3.0954975315 3.1174631003 3.217132472 3.2189720708 3.2197787043 3.0925278564 3.0965860631 
3.097974101 3.0239323486 3.0285548831 3.0001938817 3.0024638756 2.9826023252 2.9920367363 3.0067867611 3.0393672623 
3.0608605176 3.0442865047 3.102194077 3.0647455246 3.0823598869 3.1016250285 3.1102933865 3.1226159865 3.130663774 
3.1432999818 3.1506309045 3.1565573398 3.1573746603 3.1551866249 3.150964689 3.1432353255 3.1367417079 3.1306345186 
3.1246656636 3.1185282201 3.1132670606 3.0957069421 3.0918965856 3.0863509265 3.0785744695 3.0678386563 3.0577749657 
3.0490527352 3.0418291507 3.0291018553 3.0961894177 3.1195033176 3.1345891906 3.146614284 3.1536927243 3.1648846627 
3.1770600928 3.1866097209 3.1944699758 3.204513608 3.2097150187 3.2141879444 3.2150588138 3.2208430664 3.2231647792 
3.2229316813 3.2240191754 3.2268022896 3.0932251748 3.0941671374 3.0912655404 3.0858826793 3.0776930325 3.0673354902 
3.0575355829 3.0478960686 3.0404733351 3.041888804 3.2241011226 3.2219608366 3.1281787216 3.2233514756 3.121461197 
3.2245090285 3.0863824617 3.218345755 3.109427239 3.1054467587 3.223159588 3.1002675456 3.0933182779 3.0941407371 
3.1158451288 3.2232507974 3.2243527326 3.1126883454 3.0916549862 3.093940056 3.0969893223 3.0234215192 3.0306299504 
3.0008658373 3.006890337 2.9862865678 2.9940176455 3.0077484166 3.0415041725 3.0620146572 3.0457959738 3.1011361615 
3.0674163369 3.0849176754 3.1020289537 3.1117986559 3.1246928147 3.1350991779 3.1460976194 3.1539992223 3.1605481365 
3.1601848654 3.1566250332 3.1506602869 3.1424288503 3.1356084296 3.1292487027 3.1234706376 3.1174385961 3.1119648972 
3.0946722989 3.0908481493 3.0854040637 3.0777068272 3.0672092455 3.0573197547 3.0487758276 3.0414585006 3.0292103372 
3.0976172047 3.1213133816 3.1361418135 3.1490089156 3.1581063535 3.1692559231 3.1803345355 3.1861159625 3.1970631242 
3.2096093135 3.2182106813 3.2224866536 3.2237743162 3.2285258545 3.2304268285 3.2301484404 3.23076849 3.1167497113 
3.0911500627 3.0910029636 3.0887374654 3.0834994082 3.0754273035 3.0655434216 3.0560137783 3.046657809 3.0393115765 
3.0411664649 3.2309970021 3.2300244926 3.1269930549 3.2304168026 3.1203116743 3.2307617604 3.0896553372 3.22665496 
3.1081431963 3.1041897424 3.2301662199 3.0990610381 3.0907131173 3.0908428035 3.1147045192 3.2302457916 3.2309248206 
3.0893938506 3.0910698346 3.091250429 3.0960889441 3.0228389596 3.0317031562 3.0021592403 3.0087477099 2.987154161 
2.9954730932 3.0091485518 3.0423474369 3.0638588072 3.0468678001 3.1001295292 3.068728239 3.0869591507 3.1030994353 
3.113376322 3.1263021825 3.1375428652 3.1489633477 3.157075168 3.1639438111 3.1624905038 3.1574697854 3.1498997803 
3.1414643292 3.1345137527 3.1282472977 3.1222645817 3.1163471869 3.1108981129 3.0937606317 3.0899671111 3.0846199297 
3.0769944914 3.0666137278 3.0567874553 3.0483551323 3.0409673641 3.0292428736 3.0990029427 3.1230498142 3.1380325447 
3.1509570254 3.1600166396 3.1716968319 3.1840728368 3.1911713118 3.2024029304 3.2144512965 3.2248804374 3.2300339871 
3.2320363924 3.2374520929 3.2387219165 3.2375467249 3.2376702724 3.0853639828 3.0898734852 3.0892671123 3.0865731728 
3.0816475064 3.0739774274 3.0642200256 3.0547787724 3.0457225492 3.038333964 3.040387528 3.2378697251 3.2380405291 
3.1258058739 3.2381713536 3.1191952339 3.2449105153 3.0892977126 3.2348592886 3.1070598249 3.1032054729 3.2372218159 
3.0982186251 3.0885344445 3.0888994758 3.1136586693 3.2373691911 3.2421551997 3.0898083874 3.0895606338 3.0896741033 
3.0954754266 3.0224222283 3.0320905537 3.0023605373 3.0082298154 2.9867135754 2.995598255 3.009341325 3.0424765382 
3.06431175 3.0474999546 3.0995310449 3.069467607 3.0879920884 3.1040165189 3.1145996636 3.1276625986 3.1393939189 
3.1509174411 3.1591352996 3.1665067538 3.1642427222 3.15799654 3.1492088989 3.1408204897 3.1338592325 3.1276978857 
3.1214542645 3.1156279177 3.1102123508 3.0931871549 3.0894024737 3.0840991769 3.0765271856 3.066207772 3.0563634614 
3.047989905 3.0405229932 3.0292306135 3.0994683129 3.1237779049 3.1391667863 3.1522038625 3.1616637011 3.1734073942 
3.1857043839 3.1935962274 3.2052807169 3.2183831769 3.2297260616 3.2364414694 3.2395196116 3.2455507592 3.2471575156 
3.2459835963 3.2454254609 3.0840210155 3.0882465524 3.0875562422 3.085801459 3.0810096243 3.0734949686 3.0637422579 
3.054410947 3.0454537401 3.038023021 3.0401998709 3.2452124725 3.2465794116 3.1250864871 3.2468693547 3.118447111 
3.2031197422 3.0871166519 3.2426850238 3.1063721992 3.1025515771 3.2453411712 3.0975743712 3.0875046341 3.0879351561 
3.1128988621 3.2450843286 3.2530263566 3.0870251942 3.0869492077 3.0883845101 3.0951190804 3.0219469419 3.0323627986 
3.0026457928 3.0083596858 2.9869127039 2.9957743625 3.0094302696 3.0426472113 3.0645730707 3.0478745342 3.0992481751 
3.069974592 3.0884541068 3.1044451318 3.115272466 3.1285149769 3.1406342783 3.1522141987 3.1605706811 3.1683260785 
3.165510091 3.1581832812 3.1486549125 3.1404039545 3.1334937083 3.1274091734 3.1209291431 3.1152503103 3.1098149569 
3.0928387645 3.089086383 3.0838589416 3.0763065902 3.0660244521 3.0560987875 3.0477684188 3.0401989107 3.0293970829 
3.0997336039 3.1242169633 3.139822529 3.1529817698 3.1625860626 3.1744258527 3.1868089689 3.1953269885 3.2073121306 
3.2208143393 3.2328217371 3.240844319 3.245446873 3.2521916067 3.2544339449 3.2539475683 3.2533917477 3.0817398758 
3.084751328 3.0847856192 3.0837143502 3.0791584011 3.0719981593 3.0626038384 3.0535781617 3.0447767454 3.037314212 
3.0397746429 3.2529665343 3.2540843559 3.1246190043 3.2543478605 3.1180334311 3.154545194 3.0819742882 3.2490437122 
3.1060168558 3.1022669144 3.253476246 3.0972087178 3.0852618212 3.0852914609 3.1124839605 3.253081466 3.2556243911 
3.0846733261 3.0836265954 3.0854046945 3.0949356279 3.0215520178 3.0326974339 3.0030175374 3.0087041254 2.9871749817 
2.9961124084 3.0097314413 3.0429376715 3.0649516825 3.0482109437 3.0989848243 3.0703457264 3.0890683469 3.1049571505 
3.1159615503 3.1292651254 3.1416546061 3.1532866822 3.1618927996 3.1698057837 3.166605937 3.1583636411 3.1484491634 
3.1402794806 3.1333667396 3.1273387838 3.1208090298 3.1151243501 3.1096822159 3.0926649265 3.0889372869 3.0837819137 
3.0761824426 3.0659584027 3.0559190679 3.0476242394 3.0399747276 3.0295912527 3.1000976446 3.1246682681 3.1404266168 
3.1536619859 3.163367548 3.1752715058 3.1876389652 3.1965527402 3.208835014 3.222623369 3.2349577313 3.2441917087 
3.2496596107 3.2572939204 3.2610133896 3.2605424125 3.2607036842 3.0802873913 3.083454548 3.082761629 3.0815890943 
3.0773288741 3.0704307938 3.0612218302 3.0523808141 3.0438780999 3.0363549988 3.0391720017 3.2609512473 3.2593792568 
3.1245433131 3.2608871642 3.1179451447 3.1440975366 3.0814807835 3.2536489622 3.1059073201 3.1022199996 3.2604240748 
3.096955568 3.0831152664 3.0832860918 3.1123131749 3.2601997922 3.2604603841 3.084160342 3.082957232 3.0836888398 
3.0948600075 3.0215951842 3.0330179292 3.0033635244 3.009117231 2.9874232461 2.9963917051 3.0100153649 3.0432218588 
3.065341932 3.0484729251 3.0988332816 3.0705955546 3.0893940976 3.105393946 3.1165482757 3.1298838505 3.1424603327 
3.1542101703 3.1631370155 3.1711289192 3.1677060291 3.158767393 3.1486271159 3.1403986248 3.133502298 3.1274531862 
3.120971603 3.1152163948 3.1096885954 3.0926318475 3.0889004338 3.0838203476 3.0761807972 3.0660077796 3.0559045748 
3.0476323408 3.0399401797 3.0297707772 3.1004967878 3.1251412415 3.1410110841 3.1542883915 3.1640882592 3.1760119135 
3.1883840464 3.1975455416 3.2100650013 3.2240376694 3.2365702399 3.2462437681 3.252557269 3.2607777376 3.2646547694 
3.2657971284 3.2662419377 3.0797267441 3.0841025239 3.0827420265 3.0806912904 3.076440282 3.069824908 3.0605498288 
3.0517767358 3.0435280619 3.0360057855 3.0388916684 3.2666696308 3.2632989813 3.1247057837 3.2657052648 3.1180720305 
3.1637879535 3.0812787055 3.2568674143 3.1059866251 3.1021786269 3.2658741445 3.096769916 3.0823107864 3.0826012458 
3.112289951 3.2659005688 3.2658825925 3.0844412547 3.0829729614 3.0842053535 3.0949851171 3.0219736602 3.0333389196 
3.0036765357 3.0095406681 2.9876937449 2.9966592761 3.0102595377 3.0435179368 3.065728077 3.0486010061 3.0990664314 
3.0707276141 3.0895252923 3.1055875069 3.1168784433 3.130274532 3.14301517 3.1550289902 3.1641671214 3.1723390501 
3.1688995522 3.1594994893 3.1491715313 3.1407729065 3.1339055186 3.127775407 3.1213968493 3.1154778069 3.1099116907 
3.0928047524 3.089058393 3.0839964567 3.0763168481 3.0662025941 3.0560419565 3.0477913655 3.0400627712 3.0298855221 
3.1009293783 3.1256277393 3.1415593509 3.1548812488 3.1647433471 3.1766741823 3.18905797 3.1983885229 3.2110882942 
3.2251626085 3.2378379826 3.2476868983 3.2543803064 3.2631087639 3.2673104544 3.2689671773 3.2699095195 3.0801355259 
3.084291833 3.082711742 3.0802267297 3.0759752195 3.06964054 3.0603444177 3.0516521254 3.043582891 3.036117964 
3.0389737693 3.2705785259 3.2657769734 3.1251287641 3.2686742395 3.1184207045 3.1885961509 3.081157489 3.2589027801 
3.1062430262 3.1024949451 3.2694576693 3.0968570358 3.0818962023 3.0821783188 3.1124846317 3.2695472948 3.273485261 
3.0855281158 3.0826409348 3.0848402303 3.0953575008 3.0224507207 3.0336347558 3.003959077 3.0099943387 2.9880222426 
2.9969437333 3.0105172611 3.0438657886 3.0661301353 3.0486752303 3.0994858666 3.0707407909 3.0895339754 3.1056930464 
3.1171190718 3.1305704453 3.1434458007 3.1557091833 3.1652848637 3.1735829506 3.1703294004 3.1607008732 3.1500424897 
3.1413940431 3.134525738 3.1282739006 3.1219027231 3.1159100909 3.1102957582 3.0931525102 3.0893498019 3.0842997843 
3.0765562826 3.0664843494 3.0562514559 3.0480146619 3.0402572992 3.0301065764 3.1014206973 3.1261461522 3.1421529871 
3.1555000698 3.1653975897 3.1773345873 3.1897034254 3.1991777241 3.2120425242 3.2261209146 3.2388798087 3.2488083419 
3.255639095 3.2646178855 3.2689244086 3.2709631655 3.2722803553 3.0800278661 3.082488963 3.0816946031 3.0796646388 
3.0754057933 3.0692793001 3.060026064 3.0514369554 3.0435674148 3.0361689787 3.0389597394 3.2729026066 3.2674776128 
3.1256468948 3.2705379963 3.1188757446 3.1964846887 3.0802337444 3.2602432975 3.1066341469 3.102976254 3.271572987 
3.097210233 3.0811725083 3.0811177276 3.1128428684 3.2718137122 3.2764675228 3.0848899489 3.0818558041 3.0833546375 
3.0957433579 3.022829076 3.0339421332 3.0042040979 3.0104523512 2.9884033732 2.9972538301 3.0108223524 3.044306621 
3.0665826684 3.0485729148 3.0998762616 3.0705534718 3.0894311123 3.1057359457 3.1173237917 3.130794864 3.143773489 
3.1563515459 3.1661957504 3.1747748255 3.1719411125 3.162332923 3.1511007158 3.1421057781 3.1351580034 3.1287896664 
3.1224164484 3.1163651191 3.1107021494 3.0934871673 3.0896369964 3.0846013722 3.0767899795 3.0667358246 3.0564561722 
3.0482206495 3.0404488802 3.0302934835 3.1020195353 3.1267322921 3.1428705823 3.1562700813 3.1661721022 3.1781241276 
3.1904498342 3.2000378868 3.2130707946 3.2270489413 3.2398128282 3.2498237218 3.2566368661 3.2655958513 3.2702020959 
3.272338524 3.2737807328 3.079092847 3.0804507658 3.0802206695 3.0790465099 3.0748965705 3.0689021533 3.0596570907 
3.0511277101 3.0434418199 3.036130659 3.0388218396 3.274558812 3.268664839 3.1261969764 3.2718640806 3.1193459349 
3.1903578576 3.0796038237 3.2612183869 3.1070272806 3.1033313511 3.2730101891 3.0975690087 3.0803802962 3.0801446629 
3.1132380611 3.2732730934 3.2781548513 3.0837755653 3.0819804354 3.0809973947 3.0960820803 3.0231179039 3.0344064335 
3.0044686261 3.0109462959 2.9889558345 2.9976730833 3.0112289436 3.0450396681 3.067218477 3.0482675602 3.1002272488 
3.0702540062 3.0891696013 3.1056608243 3.1174522563 3.1309172438 3.144017587 3.1568454537 3.1674073491 3.1758996196 
3.173726086 3.1643544776 3.1522448285 3.1427840172 3.1356613671 3.1291733291 3.1228218264 3.1166819359 3.1110279271 
3.0937907849 3.0899235771 3.0848590289 3.0770249978 3.0669366585 3.0566559761 3.0483961168 3.040651309 3.0302707673 
3.1028423998 3.1275050384 3.1438948919 3.1572790875 3.167184832 3.179087562 3.1914092671 3.201057581 3.2142498985 
3.228017355 3.2407910131 3.250742129 3.2575289116 3.2663812026 3.2710957221 3.2734259374 3.2749099241 3.0769417802 
3.0799753496 3.0794221717 3.0785538454 3.0745237879 3.0684918815 3.0593080763 3.0508579184 3.0432634121 3.0361164868 
3.0386424244 3.2758215404 3.2695483048 3.1266393214 3.2728295719 3.1196946045 3.149824527 3.0792889177 3.2620206964 
3.1073509809 3.1036222115 3.274113194 3.0979346716 3.0797599944 3.0796923612 3.1135664744 3.2744151326 3.2763073099 
3.0815939571 3.0814049059 3.0800424632 3.0964909986 3.0232819496 3.0348992193 3.0048106696 3.0116613648 2.9898395061 
2.9983234394 3.0118384597 3.0459556836 3.0680864987 3.0478423519 3.1006571224 3.0696868793 3.088654743 3.1053520902 
3.1172971271 3.1306785493 3.1438220805 3.1571222872 3.1679251923 3.1771558438 3.1757760926 3.1669509759 3.1536739931 
3.1434718678 3.1360681251 3.129470615 3.1232445593 3.1170583461 3.1115080204 3.0941946923 3.0903667431 3.0851959422 
3.077396238 3.0671889527 3.0569039021 3.0485820804 3.0408435798 3.0299670665 3.1037784255 3.1285223222 3.1448307748 
3.1582144136 3.168217884 3.1799932289 3.1924080912 3.2021983569 3.2154436948 3.2290438962 3.2416460556 3.2519625676 
3.2586013643 3.2672776981 3.2725675634 3.27511341 3.2766499132 3.0792466259 3.0799906957 3.0796300505 3.0781371269 
3.0741798729 3.0679134742 3.0589759347 3.0506748373 3.0431043461 3.0361093188 3.0386867765 3.2773738684 3.2705056844 
3.1270696994 3.2742783385 3.1200921107 3.1215239815 3.0796161186 3.2629470213 3.1077293317 3.1040357725 3.2756224956 
3.0984205809 3.0794027869 3.0796425772 3.1141495164 3.2759594847 3.2759579703 3.0820717067 3.0801072334 3.0799860028 
3.0970327058 3.0232841745 3.0337680521 3.0039954737 3.0116875846 2.9897710223 2.9985691374 3.0121768967 3.0461773789 
3.068705511 3.046736902 3.1013752941 3.0680614888 3.087289181 3.104324586 3.1166129811 3.1299677726 3.1424646953 
3.1572905076 3.1674889697 3.1782563511 3.1783598514 3.1702278643 3.155717599 3.1445401056 3.1366846598 3.1300448105 
3.1238420762 3.1185480728 3.1126014799 3.0947515546 3.0909186508 3.0856191044 3.0778069259 3.067392099 3.0570735644 
3.0486487637 3.0408667756 3.0289835949 3.1044918721 3.1293242276 3.1456738126 3.1589520733 3.1690674376 3.1808967127 
3.193343094 3.2033819109 3.2167375537 3.230287241 3.2433774414 3.2533138402 3.260220155 3.2691291303 3.2758304448 
3.2777648573 3.2781874115 3.0758248551 3.0803904183 3.0801094239 3.0783639414 3.0741949365 3.0677525149 3.0591161257 
3.0509782793 3.0433191184 3.036428452 3.0390815344 3.2839660283 3.272803683 3.1277186629 3.2773421296 3.120828689 
3.0719492471 3.0801997672 3.2644383039 3.1086073418 3.1046327151 3.2780291309 3.0990669397 3.079771845 3.0798642859 
3.1155033321 3.2785363932 3.0852605732 3.0814675471 3.08023234 3.0803192889 3.0974746287 3.0230138535 3.0323258908 
3.0018506783 3.0066878322 2.9880604351 2.9976027868 3.0119362568 3.0458475832 3.0689766227 3.0448443215 3.101519577 
3.0666344722 3.0856052346 3.1034851251 3.1154072803 3.1285924837 3.1407965071 3.1578703174 3.1691217533 3.1808572953 
3.1833681998 3.1749041887 3.1597286982 3.146340572 3.1376687489 3.131306093 3.1247847026 3.118598031 3.1134262359 
3.0953803759 3.091460906 3.0860535667 3.0784245 3.0675895335 3.0570672934 3.0483591681 3.0406136289 3.0268094118 
3.1055587248 3.1301385359 3.1469040382 3.1604379966 3.170608486 3.1824709654 3.194643329 3.2055750059 3.2193971032 
3.2333908089 3.2469897133 3.2600953981 3.2644585691 3.2728796442 3.2780593927 3.2766951015 3.2749005081 3.0843662564 
3.0816223411 3.0814246717 3.079934603 3.0755410567 3.0695692111 3.0605615293 3.0525257387 3.0447397182 3.0376424469 
3.0406855585 3.1814803197 3.2761489263 3.1283532155 3.2782631654 3.1216167828 3.0822707031 3.0814186998 3.2680251669 
3.1088124027 3.1048707058 3.2787116967 3.099591473 3.0810214348 3.0814511136 3.1160997273 3.277938271 3.0731931019 
3.0848487924 3.0819201732 3.0816712294 3.0979401351 3.0251570969 3.034310863 3.0046675236 3.0078428514 2.9895811323 
3.0002112743 3.0151409666 3.050324594 3.0709122514 3.0474968037 3.1018802716 3.0665235317 3.0868989704 3.1025934235 
3.1164842055 3.1298723862 3.1422388647 3.1621346032 3.1829256754 3.1874262616 3.1867971195 3.1773044196 3.1606899328 
3.1472884369 3.1380393921 3.1312706249 3.123763158 3.1164301798 3.1112908443 3.0951166358 3.0926480479 3.0868634938 
3.0776019723 3.0678522174 3.0565847878 3.0473247626 3.0388608199 3.0242437075 3.1046994526 3.1312302227 3.1524786466 
3.1664014076 3.17543225 3.191427351 3.200504786 3.2109301727 3.2289465202 3.2408850408 3.2568317115 3.2660560999 