# vtk DataFile Version 4.2
vtk output
ASCII
DATASET POLYDATA
POINTS 9801 float
2713.08 -2106.07 5800 2725.93 -2108.32 5800 2731.88 -2106.07 5800 
2638.82 -2093.07 5800 2638.93 -2093.09 5800 2667.93 -2098.17 5800 
2696.93 -2103.24 5800 2754.93 -2099.76 5800 2762.47 -2093.07 5800 
2564.56 -2080.07 5800 2580.93 -2082.94 5800 2609.93 -2088.01 5800 
2777.1 -2080.06 5800 2281.03 -2067.08 5800 2290.92 -2079.7 5800 
2319.92 -2074.56 5800 2348.92 -2070 5800 2360.91 -2067.08 5800 
2464.73 -2067.07 5800 2464.93 -2067.1 5800 2493.93 -2068.22 5800 
2522.93 -2072.79 5800 2551.93 -2077.86 5800 2783.94 -2073.99 5800 
2791.73 -2067.06 5800 2277.47 -2054.08 5800 2377.92 -2063.9 5800 
2406.92 -2063.11 5800 2435.93 -2063.16 5800 2806.36 -2054.06 5800 
2274.18 -2041.08 5800 2812.94 -2048.22 5800 2821 -2041.06 5800 
2271.01 -2028.08 5800 2835.63 -2028.06 5800 2267.31 -2015.08 5800 
2841.94 -2022.45 5800 2848.51 -2015.06 5800 2263.61 -2002.08 5800 
2855.94 -2002.06 5800 2259.39 -1989.08 5800 2261.92 -1996.13 5800 
2859.2 -1989.05 5800 2255.06 -1976.07 5800 2861.34 -1976.05 5800 
2251.11 -1963.07 5800 2863.48 -1963.05 5800 2247.49 -1950.07 5800 
2865.62 -1950.05 5800 2244.16 -1937.07 5800 2867.76 -1937.05 5800 
2241.09 -1924.07 5800 2869.9 -1924.05 5800 2237.74 -1911.07 5800 
2870.95 -1917.66 5800 2872.04 -1911.05 5800 2234.04 -1898.07 5800 
2874.18 -1898.05 5800 2229.57 -1885.07 5800 2232.93 -1894.15 5800 
2877.79 -1885.05 5800 2225.15 -1872.07 5800 2887.24 -1872.04 5800 
2221.13 -1859.07 5800 2894.89 -1859.04 5800 2217.45 -1846.07 5800 
2899.96 -1852.54 5800 2905.17 -1846.04 5800 2214.09 -1833.06 5800 
2915.17 -1833.04 5800 2210.99 -1820.06 5800 2925.31 -1820.04 5800 
2208.17 -1807.06 5800 2928.96 -1815.35 5800 2935.45 -1807.04 5800 
2204.48 -1794.06 5800 2945.59 -1794.04 5800 2199.7 -1781.06 5800 
2203.94 -1792.17 5800 2955.73 -1781.04 5800 2195.18 -1768.06 5800 
2957.97 -1778.17 5800 2965.87 -1768.03 5800 2191.1 -1755.06 5800 
2976.01 -1755.03 5800 2187.48 -1742.06 5800 2986.15 -1742.03 5800 
2184.21 -1729.06 5800 2986.97 -1740.98 5800 2996.07 -1729.03 5800 
2181.26 -1716.06 5800 3006.04 -1716.03 5800 2178.55 -1703.06 5800 
3015.97 -1703.17 5800 3016.08 -1703.03 5800 2175.55 -1690.06 5800 
3025.97 -1690.03 5800 2170.81 -1677.05 5800 2174.95 -1687.86 5800 
3035.86 -1677.02 5800 2166.32 -1664.05 5800 3044.98 -1665.04 5800 
3045.75 -1664.02 5800 2162.29 -1651.05 5800 3055.64 -1651.02 5800 
2158.65 -1638.05 5800 3065.53 -1638.02 5800 2155.35 -1625.05 5800 
3073.98 -1626.91 5800 3075.42 -1625.02 5800 2152.34 -1612.05 5800 
3085.31 -1612.02 5800 2149.58 -1599.05 5800 3095.2 -1599.02 5800 
2147.05 -1586.05 5800 3102.98 -1588.78 5800 3105.08 -1586.01 5800 
2142.36 -1573.05 5800 2145.95 -1582.1 5800 3114.97 -1573.01 5800 
2137.74 -1560.05 5800 3124.86 -1560.01 5800 2135.01 -1547.05 5800 
3131.99 -1549.25 5800 3133.27 -1547.01 5800 2134.64 -1534.04 5800 
3137.1 -1534.01 5800 2131.27 -1521.04 5800 3140.94 -1521.01 5800 
2129.04 -1508.04 5800 3144.78 -1508.01 5800 2129.01 -1495.04 5800 
3148.61 -1495.01 5800 2129.39 -1482.04 5800 3152.45 -1482.01 5800 
2129.31 -1469.04 5800 3156.29 -1469 5800 2128.7 -1456.04 5800 
3160.12 -1456 5800 2128.09 -1443.04 5800 3161 -1453.04 5800 
3163.96 -1443 5800 2127.48 -1430.04 5800 3167.8 -1430 5800 
2126.87 -1417.04 5800 3171.26 -1417 5800 2126.26 -1404.03 5800 
3173.78 -1404 5800 2125.65 -1391.03 5800 3175.85 -1391 5800 
2125.04 -1378.03 5800 3177.52 -1378 5800 2124.43 -1365.03 5800 
3178.9 -1365 5800 2123.82 -1352.03 5800 3179.9 -1351.99 5800 
2123.2 -1339.03 5800 3180.15 -1338.99 5800 2122.59 -1326.03 5800 
3180.4 -1325.99 5800 2121.98 -1313.03 5800 3180.65 -1312.99 5800 
2121.37 -1300.03 5800 3180.9 -1299.99 5800 2120.78 -1287.03 5800 
3181.15 -1286.99 5800 2120.25 -1274.02 5800 3181.4 -1273.99 5800 
2119.72 -1261.02 5800 3181.65 -1260.99 5800 2119.19 -1248.02 5800 
3181.9 -1247.99 5800 2118.66 -1235.02 5800 3182.15 -1234.99 5800 
2118.14 -1222.02 5800 3182.4 -1221.98 5800 2117.62 -1209.02 5800 
3182.65 -1208.98 5800 2117.1 -1196.02 5800 3182.9 -1195.98 5800 
2116.58 -1183.02 5800 2116.98 -1192.98 5800 3183.15 -1182.98 5800 
2116.06 -1170.02 5800 3183.4 -1169.98 5800 2115.54 -1157.02 5800 
3183.65 -1156.98 5800 2115.03 -1144.02 5800 3183.9 -1143.98 5800 
2114.51 -1131.01 5800 3186.51 -1130.98 5800 2113.99 -1118.01 5800 
3190.02 -1120.88 5800 3191.04 -1117.98 5800 2113.47 -1105.01 5800 
3195.56 -1104.97 5800 2110.55 -1092.01 5800 3200.09 -1091.97 5800 
2106.12 -1079.01 5800 3204.62 -1078.97 5800 2101.68 -1066.01 5800 
3209.15 -1065.97 5800 2097.25 -1053.01 5800 3213.65 -1052.97 5800 
2092.81 -1040.01 5800 3218.07 -1039.97 5800 2088.37 -1027.01 5800 
3219.03 -1037.15 5800 3222.46 -1026.97 5800 2085.4 -1014.01 5800 
2087.99 -1025.89 5800 3226.85 -1013.97 5800 2086.45 -1001.01 5800 
3231.24 -1000.97 5800 2088 -989.313 5800 2088.18 -988.004 5800 
3235.62 -987.964 5800 2089.84 -975.003 5800 3240.01 -974.963 5800 
2091.53 -962.002 5800 3244.39 -961.962 5800 2093.22 -949.001 5800 
3248.04 -951.152 5800 3248.78 -948.961 5800 2094.92 -936 5800 
3252.55 -935.96 5800 2096.62 -922.999 5800 3255 -922.959 5800 
2098.34 -909.998 5800 2544.87 -909.982 5800 2552.02 -912.142 5800 
2581.02 -910.677 5800 2582.01 -909.981 5800 3256.75 -909.958 5800 
2100.06 -896.997 5800 2503.19 -896.983 5800 2523.02 -903.734 5800 
2602.72 -896.979 5800 3256.09 -896.957 5800 2101.78 -883.995 5800 
2468.06 -883.983 5800 2494.02 -893.848 5800 2610.02 -892.405 5800 
2623.08 -883.978 5800 3254.71 -883.956 5800 2103.52 -870.994 5800 
2426.73 -870.983 5800 2436.02 -874.857 5800 2465.02 -882.827 5800 
2639.02 -873.717 5800 2642.86 -870.976 5800 3253.34 -870.955 5800 
2105.26 -857.993 5800 2407.6 -857.983 5800 2661.05 -857.974 5800 
3251.96 -857.954 5800 2107 -844.992 5800 2401.61 -844.982 5800 
2407.02 -857.409 5800 2668.03 -852.987 5800 2679.24 -844.973 5800 
3250.59 -844.953 5800 2108.73 -831.991 5800 2393.41 -831.982 5800 
2697.03 -832.258 5800 2697.64 -831.971 5800 3249.21 -831.952 5800 
2110.44 -818.99 5800 2382.74 -818.981 5800 2717.41 -818.969 5800 
3248.88 -818.951 5800 2112.15 -805.989 5800 2372.06 -805.98 5800 
2378.02 -813.239 5800 2726.03 -812.704 5800 2732.47 -805.968 5800 
3250.47 -805.95 5800 2113.85 -792.988 5800 2361.38 -792.98 5800 
2742.16 -792.966 5800 3252.1 -792.949 5800 2115.57 -779.987 5800 
2350.7 -779.979 5800 2749.83 -779.965 5800 3253.73 -779.948 5800 
2115.58 -766.986 5800 2340.02 -766.978 5800 2349.02 -777.935 5800 
2755.04 -769.265 5800 2756.63 -766.964 5800 3255.36 -766.947 5800 
2113.74 -753.985 5800 2329.34 -753.978 5800 2765.6 -753.963 5800 
3256.99 -753.946 5800 2111.63 -740.984 5800 2318.88 -740.977 5800 
2320.02 -742.631 5800 2774.67 -740.961 5800 3258.62 -740.945 5800 
2109.52 -727.983 5800 2311.41 -727.976 5800 2783.63 -727.96 5800 
3260.71 -727.944 5800 2107.44 -714.982 5800 2305.89 -714.975 5800 
2784.04 -727.268 5800 2793.44 -714.959 5800 3263.49 -714.942 5800 
2105.72 -701.981 5800 2301.59 -701.975 5800 2803.97 -701.957 5800 
3266.07 -701.941 5800 2105.84 -688.98 5800 2298.46 -688.974 5800 
2813.04 -691.358 5800 2815.1 -688.956 5800 3268.22 -688.94 5800 
2108.78 -675.979 5800 2295.98 -675.973 5800 2824.61 -675.955 5800 
3269.73 -675.939 5800 2111.76 -662.978 5800 2293.58 -662.972 5800 
2835.22 -662.953 5800 3271.76 -662.938 5800 1450 -653.451 5800 
1441.71 -650 5800 1479 -653.489 5800 1508 -653.526 5800 
1537 -653.564 5800 1566 -653.601 5800 1595 -652.667 5800 
1609.13 -649.995 5800 2114.78 -649.977 5800 2291.27 -649.971 5800 
2842.05 -656.324 5800 2853.12 -649.952 5800 3274.4 -649.937 5800 
1424.53 -637 5800 1624.01 -647.178 5800 1653.01 -641.928 5800 
1681.69 -636.991 5800 2117.02 -640.117 5800 2117.7 -636.976 5800 
2288.52 -636.97 5800 2291.03 -648.873 5800 2871.05 -640.008 5800 
2876.24 -636.95 5800 3277.04 -636.936 5800 1421 -633.235 5800 
1412.09 -623.999 5800 1682.01 -636.936 5800 1711.01 -631.944 5800 
1740.01 -626.951 5800 1757.23 -623.987 5800 2120.43 -623.975 5800 
2285.32 -623.969 5800 2546.54 -623.96 5800 2552.04 -624.477 5800 
2581.04 -624.555 5800 2581.76 -623.959 5800 2899.49 -623.948 5800 
3277.06 -636.83 5800 3280.06 -623.935 5800 1399.86 -610.999 5800 
1769.01 -621.959 5800 1798.01 -616.967 5800 1803.93 -610.985 5800 
2123.2 -610.974 5800 2282.14 -610.968 5800 2461.8 -610.962 5800 
2465.04 -613.064 5800 2494.04 -619.957 5800 2523.04 -621.644 5800 
2597.22 -610.957 5800 2900.05 -623.631 5800 2921.55 -610.946 5800 
3282.7 -610.934 5800 3625.08 -611.601 5800 3624.84 -610.922 5800 
3625.65 -610.922 5800 1392 -602.47 5800 1387.46 -597.998 5800 
1827.02 -600.5 5800 1829.65 -597.983 5800 2126.01 -597.973 5800 
2279 -597.967 5800 2441.79 -597.962 5800 2610.04 -600.18 5800 
2612.79 -597.956 5800 2929.05 -605.64 5800 2943.28 -597.945 5800 
3285.4 -597.933 5800 3622.01 -597.921 5800 3632.06 -597.921 5800 
1374.14 -584.998 5800 1844.59 -584.981 5800 2128.56 -584.972 5800 
2275.86 -584.966 5800 2422.34 -584.961 5800 2436.04 -594.222 5800 
2628.16 -584.954 5800 2958.06 -590.849 5800 2964.46 -584.943 5800 
3288.04 -584.932 5800 3620.73 -584.92 5800 3634.28 -584.92 5800 
1363 -573.819 5800 1361.16 -571.997 5800 1856.02 -575.241 5800 
1859.85 -571.98 5800 2128.77 -571.971 5800 2270.94 -571.966 5800 
2404.35 -571.961 5800 2407.04 -574.702 5800 2638.05 -571.953 5800 
2981.56 -571.941 5800 3290.24 -571.931 5800 3619.76 -571.919 5800 
3635.22 -571.919 5800 1347.99 -558.997 5800 1875.11 -558.978 5800 
2129.07 -558.97 5800 2266.89 -558.965 5800 2394.45 -558.96 5800 
2639.05 -570.318 5800 2644.87 -558.952 5800 2987.06 -568.439 5800 
2997.7 -558.94 5800 3292.26 -558.93 5800 3618.03 -558.918 5800 
3636.5 -558.918 5800 1334.82 -545.996 5800 1885.02 -550.529 5800 
1890.15 -545.977 5800 2129.31 -545.969 5800 2261.75 -545.964 5800 
2262.04 -546.542 5800 2385.9 -545.96 5800 2651.52 -545.951 5800 
3012.14 -545.938 5800 3294.25 -545.928 5800 3614.06 -545.917 5800 
3638.37 -545.917 5800 1334 -545.191 5800 1321.65 -532.995 5800 
1904.45 -532.975 5800 2127.54 -532.968 5800 2254.45 -532.963 5800 
[...]
POINT_DATA 9801
SCALARS Pressure double
LOOKUP_TABLE default
3.0947782793 3.0947782793 3.0947782793 3.0947782793 3.0947782793 3.0947782793 3.0947782793 3.0947782793 3.0947782793 
3.0947782793 3.0947782793 3.0947782793 3.0947782793 3.0947782793 3.0947782793 3.0947782793 3.0947782793 3.0947782793 
3.0947782793 3.0947782793 3.0947782793 3.0947782793 3.0947782793 3.0947782793 3.0947782793 3.0947782793 3.0947782793 
3.0947782793 3.0947782793 3.0947782793 3.0947782793 3.0947782793 3.0947782793 3.0947782793 3.0947782793 3.0947782793 
3.0947782793 3.0947782793 3.0947782793 3.0947782793 3.0947782793 3.0947782793 3.0947782793 3.0947782793 3.0947782793 
3.0947782793 3.0947782793 3.0947782793 3.0947782793 3.0947782793 3.0947782793 3.0947782793 3.0947782793 3.0947782793 
3.0947782793 3.0947782793 3.0947782793 3.0947782793 3.0947782793 3.0947782793 3.0947782793 3.0947782793 3.0947782793 
3.0947782793 3.0947782793 3.0947782793 3.0947782793 3.0947782793 3.0947782793 3.0947782793 3.0947782793 3.0947782793 
3.0947782793 3.0947782793 3.0947782793 3.0947782793 3.0947782793 3.0947782793 3.0947782793 3.0947782793 3.0947782793 
3.0947782793 3.0947782793 3.0947782793 3.0947782793 3.0947782793 3.0947782793 3.0947782793 3.0947782793 3.0947782793 
3.0947782793 3.0947782793 3.0947782793 3.0947782793 3.0947782793 3.0947782793 3.0947782793 3.0947782793 3.0947782793 
3.0947782793 3.0947782793 3.0947782793 3.0947782793 3.0947782793 3.0947782793 3.0947782793 3.0947782793 3.0947782793 
3.0947782793 3.0947782793 3.0947782793 3.0947782793 3.0947782793 3.0947782793 3.0947782793 3.0947782793 3.0947782793 
3.0947782793 3.0947782793 3.0947782793 3.0947782793 3.0947782793 3.0947782793 3.0947782793 3.0947782793 3.0947782793 
3.0947782793 3.0947782793 3.0947782793 3.0947782793 3.0947782793 3.0947782793 3.0947782793 3.0947782793 3.0947782793 
3.0947782793 3.0947782793 3.0947782793 3.0947782793 3.0947782793 3.0947782793 3.0947782793 3.0947782793 3.0947782793 
3.0947782793 3.0947782793 3.0947782793 3.0947782793 3.0947782793 3.0947782793 3.0947782793 3.0947782793 3.0947782793 
3.0947782793 3.0947782793 3.0947782793 3.0947782793 3.0947782793 3.0947782793 3.0947782793 3.0947782793 3.0947782793 
3.0947782793 3.0947782793 3.0947782793 3.0947782793 3.0947782793 3.0947782793 3.0947782793 3.0947782793 3.0947782793 
3.0947782793 3.0947782793 3.0947782793 3.0947782793 3.0947782793 3.0947782793 3.0947782793 3.0947782793 3.0947782793 
3.0947782793 3.0947782793 3.0947782793 3.0947782793 3.0947782793 3.0947782793 3.0947782793 3.0947782793 3.0947782793 
3.0947782793 3.0947782793 3.0947782793 3.0947782793 3.0947782793 3.0947782793 3.0947782793 3.0947782793 3.0947782793 
3.0947782793 3.0947782793 3.0947782793 3.0947782793 3.0947782793 3.0947782793 3.0947782793 3.0947782793 3.0947782793 
3.0947782793 3.0947782793 3.0947782793 3.0947782793 3.0947782793 3.0947782793 3.0947782793 3.0947782793 3.0947782793 
3.0947782793 3.0947782793 3.0947782793 3.0947782793 3.0947782793 3.0947782793 3.0947782793 3.0947782793 3.0947782793 
3.0947782793 3.0947782793 3.0947782793 3.0947782793 3.1071085668 3.1071085668 3.1071085668 3.1071085668 3.0947782793 
3.0947782793 3.1071085668 3.1071085668 3.1071085668 3.0947782793 3.0947782793 3.1071085668 3.1071085668 3.1071085668 
3.1071085668 3.0947782793 3.0947782793 3.1071085668 3.1071085668 3.1071085668 3.1071085668 3.1071085668 3.0947782793 
3.0947782793 3.1071085668 3.1071085668 3.0947782793 3.0947782793 3.1071085668 3.1071085668 3.1071085668 3.1071085668 
3.0947782793 3.0947782793 3.1071085668 3.1071085668 3.1071085668 3.0947782793 3.0947782793 3.1071085668 3.1071085668 
3.0947782793 3.0947782793 3.1071085668 3.1071085668 3.1071085668 3.1071085668 3.0947782793 3.0947782793 3.1071085668 
3.1071085668 3.0947782793 3.0947782793 3.1071085668 3.1071085668 3.0947782793 3.0947782793 3.1071085668 3.1071085668 
3.1071085668 3.1071085668 3.0947782793 3.0947782793 3.1071085668 3.1071085668 3.0947782793 3.0947782793 3.1071085668 
3.1071085668 3.1071085668 3.0947782793 3.0947782793 3.1071085668 3.1071085668 3.0947782793 3.0947782793 3.1071085668 
3.1071085668 3.1071085668 3.0947782793 3.0947782793 3.1071085668 3.1071085668 3.0947782793 3.0947782793 3.1071085668 
3.1071085668 3.1071085668 3.0947782793 3.0947782793 3.1071085668 3.1071085668 3.0947782793 3.0947782793 3.1071085668 
3.1071085668 3.0947782793 3.0824479919 3.0824479919 3.0824479919 3.0824479919 3.0824479919 3.0824479919 3.0824479919 
3.0824479919 3.0947782793 3.1071085668 3.1071085668 3.1071085668 3.0947782793 3.0824479919 3.0824479919 3.0824479919 
3.0824479919 3.0947782793 3.0947782793 3.1071085668 3.1071085668 3.1071085668 3.1071085668 3.0947782793 3.0824479919 
3.0824479919 3.0824479919 3.0824479919 3.0824479919 3.0824479919 3.0947782793 3.1071085668 3.1194388543 3.1194388543 
3.1194388543 3.1194388543 3.1071085668 3.0947782793 3.0947782793 3.0824479919 3.0824479919 3.0824479919 3.0824479919 
3.0947782793 3.1071085668 3.1194388543 3.1194388543 3.1194388543 3.1194388543 3.1194388543 3.1071085668 3.1071085668 
3.0947782793 3.0824479919 3.0824479919 3.0824479919 3.0824479919 3.0824479919 3.0824479919 3.0824479919 3.0947782793 
3.1071085668 3.1194388543 3.1194388543 3.1194388543 3.1071085668 3.1071085668 3.0947782793 3.0824479919 3.0824479919 
3.0824479919 3.0824479919 3.0947782793 3.1071085668 3.1194388543 3.1194388543 3.1194388543 3.1071085668 3.1071085668 
3.0947782793 3.0824479919 3.0824479919 3.0824479919 3.0824479919 3.0824479919 3.0824479919 3.0947782793 3.1071085668 
3.1194388543 3.1194388543 3.1194388543 3.1071085668 3.0947782793 3.0824479919 3.0824479919 3.0824479919 3.0824479919 
3.0947782793 3.1071085668 3.1194388543 3.1194388543 3.1194388543 3.1071085668 3.1071085668 3.0947782793 3.0824479919 
3.0824479919 3.0824479919 3.0824479919 3.0824479919 3.0947782793 3.1071085668 3.1071085668 3.1194388543 3.1194388543 
3.1071085668 3.0947782793 3.0824479919 3.0824479919 3.0824479919 3.0824479919 3.0824479919 3.0947782793 3.1071085668 
3.1194388543 3.1194388543 3.1194388543 3.1071085668 3.1071085668 3.0947782793 3.0824479919 3.0824479919 3.0824479919 
3.0824479919 3.0824479919 3.0824479919 3.0947782793 3.1071085668 3.1194388543 3.1194388543 3.1071085668 3.0947782793 
3.0824479919 3.0824479919 3.0824479919 3.0824479919 3.0824479919 3.0947782793 3.1071085668 3.1194388543 3.1194388543 
3.1194388543 3.1071085668 3.0947782793 3.0824479919 3.0824479919 3.0824479919 3.0824479919 3.0824479919 3.0947782793 
3.1071085668 3.1194388543 3.1194388543 3.1071085668 3.1071085668 3.0947782793 3.0824479919 3.0824479919 3.0824479919 
3.0824479919 3.0824479919 3.0947782793 3.1071085668 3.1194388543 3.1194388543 3.1194388543 3.1071085668 3.0947782793 
3.0824479919 3.0824479919 3.0824479919 3.0824479919 3.0824479919 3.0947782793 3.1071085668 3.1194388543 3.1317691418 
3.1317691418 3.1317691418 3.1194388543 3.1071085668 3.0947782793 3.0824479919 3.0824479919 3.0824479919 3.0824479919 
3.0824479919 3.0947782793 3.1071085668 3.1194388543 3.1317691418 3.1317691418 3.1317691418 3.1317691418 3.1194388543 
3.1194388543 3.1071085668 3.1071085668 3.0947782793 3.0824479919 3.0824479919 3.0824479919 3.0824479919 3.0947782793 
3.1071085668 3.1194388543 3.1317691418 3.1317691418 3.1317691418 3.1317691418 3.1194388543 3.1071085668 3.0947782793 
3.0947782793 3.0824479919 3.0824479919 3.0824479919 3.0824479919 3.0824479919 3.0947782793 3.1071085668 3.1071085668 
3.1194388543 3.1317691418 3.1317691418 3.1317691418 3.1317691418 3.1194388543 3.1071085668 3.0947782793 3.0824479919 
3.0824479919 3.0824479919 3.0824479919 3.0824479919 3.0947782793 3.1071085668 3.1194388543 3.1194388543 3.1317691418 
3.1317691418 3.1194388543 3.1071085668 3.0947782793 3.0824479919 3.0824479919 3.0824479919 3.0824479919 3.0824479919 
3.0947782793 3.1071085668 3.1194388543 3.1317691418 3.1317691418 3.1194388543 3.1071085668 3.1071085668 3.0947782793 
3.0824479919 3.0824479919 3.0824479919 3.0824479919 3.0824479919 3.0824479919 3.0824479919 3.0947782793 3.1071085668 
3.1194388543 3.1317691418 3.1317691418 3.1317691418 3.1317691418 3.1194388543 3.1071085668 3.0947782793 3.0824479919 
3.0824479919 3.0824479919 3.0824479919 3.0824479919 3.0947782793 3.0947782793 3.1071085668 3.1194388543 3.1317691418 
3.1317691418 3.1194388543 3.1071085668 3.0947782793 3.0824479919 3.0824479919 3.0824479919 3.0824479919 3.0947782793 
3.1071085668 3.1194388543 3.1317691418 3.1317691418 3.1194388543 3.1194388543 3.1071085668 3.0947782793 3.0824479919 
3.0824479919 3.0824479919 3.0824479919 3.0824479919 3.0824479919 3.0947782793 3.1071085668 3.1194388543 3.1194388543 
3.1317691418 3.1317691418 3.1317691418 3.1194388543 3.1071085668 3.1071085668 3.0947782793 3.0824479919 3.0824479919 
3.0824479919 3.0824479919 3.0824479919 3.0947782793 3.1071085668 3.1194388543 3.1317691418 3.1440994292 3.1440994292 
3.1440994292 3.1440994292 3.1440994292 3.1317691418 3.1194388543 3.1071085668 3.0947782793 3.0824479919 3.0824479919 
3.0824479919 3.0824479919 3.0947782793 3.1071085668 3.1194388543 3.1317691418 3.1440994292 3.1440994292 3.1440994292 
3.1317691418 3.1194388543 3.1071085668 3.0947782793 3.0824479919 3.0824479919 3.0824479919 3.0824479919 3.0824479919 
3.0947782793 3.1071085668 3.1194388543 3.1317691418 3.1317691418 3.1440994292 3.1440994292 3.1440994292 3.1317691418 
3.1194388543 3.1071085668 3.0947782793 3.0824479919 3.0824479919 3.0824479919 3.0824479919 3.0824479919 3.0824479919 
3.0947782793 3.1071085668 3.1194388543 3.1317691418 3.1440994292 3.1440994292 3.1440994292 3.1317691418 3.1194388543 
3.1071085668 3.0947782793 3.0824479919 3.0824479919 3.0824479919 3.0824479919 3.0824479919 3.0824479919 3.0701177044 
3.0701177044 3.0701177044 3.0824479919 3.0947782793 3.1071085668 3.1194388543 3.1317691418 3.1440994292 3.1440994292 
3.1440994292 3.1317691418 3.1317691418 3.1194388543 3.1071085668 3.0947782793 3.0824479919 3.0824479919 3.0824479919 
3.0824479919 3.0824479919 3.0824479919 3.0824479919 3.0824479919 3.0701177044 3.0701177044 3.0701177044 3.0701177044 
3.0701177044 3.0701177044 3.0701177044 3.0824479919 3.0824479919 3.0947782793 3.1071085668 3.1194388543 3.1317691418 
3.1440994292 3.1440994292 3.1440994292 3.1317691418 3.1194388543 3.1194388543 3.1194388543 3.1194388543 3.1194388543 
3.1194388543 3.1071085668 3.1071085668 3.0947782793 3.0824479919 3.0824479919 3.0824479919 3.0824479919 3.0824479919 
3.0824479919 3.0824479919 3.0824479919 3.0824479919 3.0701177044 3.0701177044 3.0701177044 3.0824479919 3.0947782793 
3.1071085668 3.1194388543 3.1194388543 3.1317691418 3.1317691418 3.1440994292 3.1440994292 3.1317691418 3.1194388543 
3.1194388543 3.1194388543 3.1194388543 3.1194388543 3.1071085668 3.0947782793 3.0824479919 3.0824479919 3.0824479919 
3.0824479919 3.0824479919 3.0824479919 3.0824479919 3.0701177044 3.0701177044 3.0701177044 3.0701177044 3.0824479919 
3.0947782793 3.1071085668 3.1194388543 3.1317691418 3.1440994292 3.1564297167 3.1564297167 3.1564297167 3.1564297167 
3.1564297167 3.1440994292 3.1317691418 3.1194388543 3.1194388543 3.1194388543 3.1194388543 3.1071085668 3.0947782793 
3.0824479919 3.0824479919 3.0824479919 3.0824479919 3.0824479919 3.0824479919 3.0824479919 3.0824479919 3.0824479919 
3.0824479919 3.0824479919 3.0701177044 3.0701177044 3.0701177044 3.0824479919 3.0947782793 3.1071085668 3.1071085668 
3.1194388543 3.1317691418 3.1440994292 3.1440994292 3.1564297167 3.1564297167 3.1440994292 3.1317691418 3.1194388543 
3.1194388543 3.1194388543 3.1194388543 3.1071085668 3.0947782793 3.0824479919 3.0824479919 3.0824479919 3.0824479919 
3.0824479919 3.0824479919 3.0824479919 3.0824479919 3.0824479919 3.0824479919 3.0824479919 3.0824479919 3.0824479919 
3.0824479919 3.0824479919 3.0824479919 3.0824479919 3.0701177044 3.0701177044 3.0701177044 3.0824479919 3.0947782793 
3.1071085668 3.1194388543 3.1317691418 3.1440994292 3.1564297167 3.1564297167 3.1564297167 3.1564297167 3.1440994292 
3.1440994292 3.1317691418 3.1194388543 3.1194388543 3.1194388543 3.1071085668 3.0947782793 3.0824479919 3.0824479919 
3.0824479919 3.0824479919 3.0824479919 3.0824479919 3.0824479919 3.0824479919 3.0824479919 3.0824479919 3.0824479919 
3.0824479919 3.0824479919 3.0824479919 3.0824479919 3.0824479919 3.0824479919 3.0824479919 3.0701177044 3.0701177044 
3.0701177044 3.0824479919 3.0947782793 3.1071085668 3.1194388543 3.1317691418 3.1317691418 3.1440994292 3.1440994292 
3.1564297167 3.1564297167 3.1564297167 3.1440994292 3.1317691418 3.1194388543 3.1194388543 3.1194388543 3.1071085668 
3.0947782793 3.0824479919 3.0824479919 3.0824479919 3.0824479919 3.0824479919 3.0824479919 3.0824479919 3.0824479919 
3.0824479919 3.0824479919 3.0824479919 3.0824479919 3.0824479919 3.0824479919 3.0824479919 3.0824479919 3.0824479919 
3.0824479919 3.0824479919 3.0701177044 3.0701177044 3.0701177044 3.0701177044 3.0824479919 3.0947782793 3.1071085668 
3.1194388543 3.1317691418 3.1440994292 3.1564297167 3.1564297167 3.1440994292 3.1317691418 3.1194388543 3.1194388543 
3.1194388543 3.1071085668 3.0947782793 3.0947782793 3.0824479919 3.0824479919 3.0824479919 3.0824479919 3.0824479919 
3.0824479919 3.0824479919 3.0824479919 3.0824479919 3.0824479919 3.0824479919 3.0824479919 3.0824479919 3.0824479919 
3.0701177044 3.0701177044 3.0824479919 3.0947782793 3.1071085668 3.1194388543 3.1194388543 3.1317691418 3.1440994292 
3.1564297167 3.1564297167 3.1564297167 3.1564297167 3.1440994292 3.1317691418 3.1194388543 3.1194388543 3.1194388543 
3.1071085668 3.0947782793 3.0824479919 3.0824479919 3.0824479919 3.0824479919 3.0824479919 3.0824479919 3.0824479919 
3.0824479919 3.0824479919 3.0824479919 3.0824479919 3.0824479919 3.0824479919 3.0824479919 3.0824479919 3.0701177044 
3.0701177044 3.0824479919 3.0824479919 3.0947782793 3.1071085668 3.1194388543 3.1317691418 3.1440994292 3.1440994292 
3.1564297167 3.1564297167 3.1440994292 3.1317691418 3.1194388543 3.1194388543 3.1194388543 3.1071085668 3.0947782793 
3.0824479919 3.0824479919 3.0824479919 3.0824479919 3.0824479919 3.0824479919 3.0824479919 3.0824479919 3.0824479919 
3.0824479919 3.0824479919 3.0701177044 3.0577874169 3.0577874169 3.0577874169 3.0577874169 3.0577874169 3.0577874169 
3.0701177044 3.0824479919 3.0947782793 3.1071085668 3.1194388543 3.1317691418 3.1317691418 3.1440994292 3.1564297167 
3.1564297167 3.1564297167 3.1440994292 3.1317691418 3.1194388543 3.1194388543 3.1194388543 3.1071085668 3.0947782793 
3.0824479919 3.0824479919 3.0824479919 3.0824479919 3.0824479919 3.0824479919 3.0824479919 3.0824479919 3.0824479919 
3.0701177044 3.0577874169 3.0577874169 3.0577874169 3.0577874169 3.0701177044 3.0701177044 3.0824479919 3.0947782793 
3.1071085668 3.1194388543 3.1317691418 3.1440994292 3.1564297167 3.1687600042 3.1687600042 3.1687600042 3.1564297167 
3.1440994292 3.1317691418 3.1194388543 3.1194388543 3.1194388543 3.1194388543 3.1071085668 3.0947782793 3.0824479919 
3.0824479919 3.0824479919 3.0824479919 3.0824479919 3.0824479919 3.0824479919 3.0824479919 3.0824479919 3.0701177044 
3.0577874169 3.0577874169 3.0701177044 3.0824479919 3.0947782793 3.1071085668 3.1194388543 3.1317691418 3.1440994292 
3.1440994292 3.1564297167 3.1564297167 3.1687600042 3.1687600042 3.1687600042 3.1687600042 3.1687600042 3.1564297167 
3.1440994292 3.1317691418 3.1194388543 3.1194388543 3.1194388543 3.1071085668 3.0947782793 3.0824479919 3.0701177044 
3.0701177044 3.0701177044 3.0824479919 3.0824479919 3.0824479919 3.0824479919 3.0824479919 3.0824479919 3.0701177044 
3.0577874169 3.0577874169 3.0577874169 3.0577874169 3.0701177044 3.0824479919 3.0947782793 3.1071085668 3.1194388543 
3.1317691418 3.1440994292 3.1564297167 3.1687600042 3.1687600042 3.1687600042 3.1564297167 3.1440994292 3.1317691418 
3.1317691418 3.1194388543 3.1194388543 3.1194388543 3.1071085668 3.0947782793 3.0824479919 3.0824479919 3.0701177044 
3.0701177044 3.0701177044 3.0701177044 3.0824479919 3.0824479919 3.0824479919 3.0701177044 3.0577874169 3.0577874169 
3.0701177044 3.0824479919 3.0947782793 3.1071085668 3.1194388543 3.1194388543 3.1317691418 3.1317691418 3.1440994292 
3.1564297167 3.1687600042 3.1687600042 3.1687600042 3.1687600042 3.1564297167 3.1440994292 3.1317691418 3.1194388543 
3.1194388543 3.1194388543 3.1071085668 3.0947782793 3.0824479919 3.0701177044 3.0701177044 3.0824479919 3.0824479919 
3.0824479919 3.0701177044 3.0577874169 3.0454571294 3.0454571294 3.0454571294 3.0454571294 3.0454571294 3.0577874169 
3.0701177044 3.0824479919 3.0947782793 3.1071085668 3.1071085668 3.1194388543 3.1317691418 3.1440994292 3.1440994292 
3.1564297167 3.1564297167 3.1687600042 3.1687600042 3.1564297167 3.1440994292 3.1317691418 3.1194388543 3.1194388543 
3.1194388543 3.1071085668 3.0947782793 3.0824479919 3.0701177044 3.0701177044 3.0701177044 3.0824479919 3.0824479919 
3.0824479919 3.0701177044 3.0701177044 3.0577874169 3.0454571294 3.0454571294 3.0454571294 3.0454571294 3.0577874169 
3.0577874169 3.0701177044 3.0824479919 3.0947782793 3.1071085668 3.1194388543 3.1317691418 3.1440994292 3.1564297167 
3.1687600042 3.1687600042 3.1687600042 3.1564297167 3.1440994292 3.1317691418 3.1194388543 3.1194388543 3.1194388543 
3.1071085668 3.0947782793 3.0947782793 3.0824479919 3.0701177044 3.0701177044 3.0824479919 3.0824479919 3.0824479919 
3.0824479919 3.0701177044 3.0577874169 3.0454571294 3.0454571294 3.0577874169 3.0701177044 3.0824479919 3.0947782793 
3.0947782793 3.1071085668 3.1194388543 3.1317691418 3.1440994292 3.1564297167 3.1564297167 3.1687600042 3.1687600042 
3.1564297167 3.1440994292 3.1317691418 3.1194388543 3.1194388543 3.1194388543 3.1071085668 3.0947782793 3.0824479919 
3.0701177044 3.0701177044 3.0701177044 3.0701177044 3.0701177044 3.0701177044 3.0701177044 3.0701177044 3.0701177044 
3.0701177044 3.0824479919 3.0824479919 3.0824479919 3.0701177044 3.0577874169 3.0577874169 3.0454571294 3.033126842 
3.033126842 3.033126842 3.033126842 3.033126842 3.0454571294 3.0577874169 3.0701177044 3.0824479919 3.0947782793 
3.1071085668 3.1194388543 3.1317691418 3.1317691418 3.1440994292 3.1440994292 2.9468148297 2.9468148297 2.9591451171 
2.9591451171 2.9714754046 2.9714754046 2.9838056921 2.9838056921 2.9961359796 2.9961359796 3.008466267 3.008466267 
3.0207965545 3.0207965545 3.033126842 3.033126842 3.0454571294 3.0454571294 3.0577874169 3.0577874169 3.0701177044 
3.0701177044 3.0824479919 3.0824479919 3.0947782793 3.0947782793 3.1071085668 3.1071085668 3.1194388543 3.1194388543 
3.1317691418 3.1317691418 3.1440994292 3.1440994292 3.1564297167 2.9468148297 2.9591451171 2.9714754046 2.9838056921 
2.9961359796 3.008466267 3.0207965545 3.033126842 3.0454571294 3.0577874169 3.0701177044 3.0824479919 3.0947782793 
3.1071085668 3.1194388543 3.1317691418 3.1440994292 3.1564297167 2.9468148297 2.9591451171 2.9714754046 2.9838056921 
2.9961359796 3.008466267 3.0207965545 3.033126842 3.0454571294 3.0577874169 3.0701177044 3.0824479919 3.0947782793 
3.1071085668 3.1194388543 3.1317691418 3.1440994292 3.1564297167 2.9468148297 2.9591451171 2.9714754046 2.9838056921 
2.9961359796 3.008466267 3.0207965545 3.033126842 3.0454571294 3.0577874169 3.0701177044 3.0824479919 3.0947782793 
3.1071085668 3.1194388543 3.1317691418 3.1440994292 3.1564297167 3.1687600042 2.9468148297 2.9591451171 2.9714754046 
2.9838056921 2.9961359796 3.008466267 3.0207965545 3.033126842 3.0454571294 3.0577874169 3.0701177044 3.0824479919 
3.0947782793 3.1071085668 3.1194388543 3.1317691418 3.1440994292 3.1564297167 3.1687600042 2.9468148297 2.9591451171 
2.9714754046 2.9838056921 2.9961359796 3.008466267 3.0207965545 3.033126842 3.0454571294 3.0577874169 3.0701177044 
3.0824479919 3.0947782793 3.1071085668 3.1194388543 3.1317691418 3.1440994292 3.1564297167 3.1687600042 2.9468148297 
2.9591451171 2.9714754046 2.9838056921 2.9961359796 3.008466267 3.0207965545 3.033126842 3.0454571294 3.0577874169 
3.0701177044 3.0824479919 3.0947782793 3.1071085668 3.1194388543 3.1317691418 3.1440994292 3.1564297167 3.1687600042 
2.9468148297 2.9591451171 2.9714754046 2.9838056921 2.9961359796 3.008466267 3.0207965545 3.033126842 3.0454571294 