# vtk DataFile Version 4.2
vtk output
ASCII
DATASET POLYDATA
POINTS 8839 float
1601.38 -3043.14 0 1627.86 -3049.59 0 1639.72 -3043.13 0 
1581.78 -3026.14 0 1590.86 -3039.56 0 1664.87 -3029.44 0 
1670.95 -3026.13 0 1570.27 -3009.13 0 1701.87 -3009.3 0 
1702.17 -3009.13 0 1558.76 -2992.13 0 1733.4 -2992.13 0 
1547.26 -2975.13 0 1553.87 -2984.9 0 1738.87 -2989.15 0 
1764.62 -2975.13 0 1535.75 -2958.13 0 1775.87 -2970.23 0 
1812.87 -2960.23 0 1823.68 -2958.12 0 1524.24 -2941.13 0 
1849.88 -2953.02 0 1886.88 -2945.81 0 1910.94 -2941.12 0 
1512.73 -2924.13 0 1516.87 -2930.24 0 1923.88 -2938.6 0 
1960.88 -2931.39 0 1997.88 -2924.18 0 1998.2 -2924.12 0 
1484.98 -2907.13 0 2034.88 -2916.97 0 2071.88 -2909.76 0 
2085.46 -2907.11 0 1436.18 -2890.13 0 1442.87 -2892.46 0 
1479.87 -2905.35 0 2108.89 -2902.55 0 2145.89 -2895.34 0 
2172.72 -2890.11 0 1387.38 -2873.13 0 1405.87 -2879.57 0 
2182.89 -2888.13 0 2219.89 -2880.92 0 2228.11 -2873.11 0 
1338.59 -2856.13 0 1368.87 -2866.68 0 2240.17 -2856.11 0 
1289.79 -2839.13 0 1294.87 -2840.9 0 1331.87 -2853.79 0 
2247.84 -2839.11 0 1241 -2822.13 0 1257.87 -2828.01 0 
2252.4 -2822.1 0 1192.2 -2805.13 0 1220.87 -2815.12 0 
2256.9 -2805.72 0 2257.07 -2805.1 0 1143.4 -2788.13 0 
1146.87 -2789.34 0 1183.87 -2802.23 0 2261.73 -2788.1 0 
1094.61 -2771.13 0 1109.87 -2776.45 0 2266.39 -2771.1 0 
1053.2 -2754.13 0 1072.87 -2763.56 0 2271.05 -2754.1 0 
1023.87 -2737.13 0 1035.87 -2744.57 0 2275.72 -2737.1 0 
996.448 -2720.13 0 998.867 -2721.63 0 2280.38 -2720.1 0 
969.029 -2703.13 0 2285.04 -2703.1 0 955.212 -2686.13 0 
961.867 -2698.69 0 2289.71 -2686.1 0 946.41 -2669.13 0 
2293.91 -2670.79 0 2294.37 -2669.09 0 937.834 -2652.13 0 
2299.03 -2652.09 0 929.477 -2635.13 0 2303.69 -2635.09 0 
921.743 -2618.13 0 924.871 -2625.57 0 2308.36 -2618.09 0 
914.598 -2601.13 0 2313.02 -2601.09 0 907.452 -2584.13 0 
2317.68 -2584.09 0 900.307 -2567.13 0 2322.35 -2567.09 0 
893.161 -2550.13 0 2327.01 -2550.09 0 886.016 -2533.13 0 
887.875 -2537.55 0 2330.91 -2535.85 0 2331.67 -2533.09 0 
878.87 -2516.12 0 2336.34 -2516.08 0 871.725 -2499.12 0 
2341 -2499.08 0 864.579 -2482.12 0 2345.66 -2482.08 0 
857.434 -2465.12 0 2350.32 -2465.08 0 850.288 -2448.12 0 
850.879 -2449.53 0 2354.99 -2448.08 0 843.142 -2431.12 0 
2359.65 -2431.08 0 835.997 -2414.12 0 2364.31 -2414.08 0 
828.851 -2397.12 0 2367.92 -2400.91 0 2368.98 -2397.08 0 
821.706 -2380.12 0 2373.64 -2380.08 0 814.56 -2363.12 0 
2378.3 -2363.07 0 807.415 -2346.12 0 813.883 -2361.51 0 
2382.96 -2346.07 0 800.269 -2329.12 0 2387.63 -2329.07 0 
793.124 -2312.11 0 2392.29 -2312.07 0 785.978 -2295.11 0 
2396.95 -2295.07 0 778.833 -2278.11 0 2401.62 -2278.07 0 
771.687 -2261.11 0 776.887 -2273.48 0 2404.93 -2265.98 0 
2406.28 -2261.07 0 764.542 -2244.11 0 2410.94 -2244.07 0 
757.396 -2227.11 0 2416.99 -2227.07 0 750.25 -2210.11 0 
2427.4 -2210.06 0 743.105 -2193.11 0 2438.1 -2193.06 0 
735.979 -2176.11 0 739.891 -2185.46 0 2441.94 -2186.97 0 
2448.8 -2176.06 0 729.757 -2159.11 0 2459.5 -2159.06 0 
726.179 -2142.11 0 2470.2 -2142.06 0 722.63 -2125.11 0 
2478.94 -2128.18 0 2480.9 -2125.06 0 719.081 -2108.1 0 
2491.61 -2108.06 0 715.531 -2091.1 0 2502.31 -2091.06 0 
711.982 -2074.1 0 2511.32 -2074.05 0 708.433 -2057.1 0 
2513.03 -2057.05 0 704.883 -2040.1 0 2514.17 -2040.05 0 
701.334 -2023.1 0 702.9 -2030.6 0 2514.91 -2023.05 0 
697.785 -2006.1 0 2515.52 -2006.05 0 694.236 -1989.1 0 
2515.95 -1993.88 0 2516.12 -1989.05 0 690.686 -1972.1 0 
2516.73 -1972.05 0 687.137 -1955.1 0 2517.33 -1955.05 0 
683.588 -1938.1 0 2517.94 -1938.05 0 680.038 -1921.09 0 
2518.55 -1921.04 0 -629.129 -1906.4 0 -633.927 -1904.13 0 
-592.129 -1918.32 0 -555.128 -1913.52 0 -518.126 -1908.4 0 
-487.227 -1904.13 0 676.489 -1904.09 0 2519.15 -1904.04 0 
-666.129 -1888.89 0 -669.858 -1887.13 0 -481.125 -1903.28 0 
-444.124 -1898.16 0 -407.122 -1893.04 0 -370.121 -1887.92 0 
-364.639 -1887.12 0 672.94 -1887.09 0 2519.76 -1887.04 0 
-703.129 -1871.39 0 -705.788 -1870.13 0 -333.12 -1881.82 0 
-299.858 -1870.12 0 669.39 -1870.09 0 2520.37 -1870.04 0 
-740.129 -1853.88 0 -741.718 -1853.13 0 -296.118 -1868.8 0 
-259.116 -1855.78 0 -251.536 -1853.12 0 665.845 -1853.09 0 
665.909 -1853.42 0 2520.97 -1853.04 0 -777.129 -1836.37 0 
-777.648 -1836.13 0 -222.114 -1842.76 0 -203.215 -1836.11 0 
662.644 -1836.09 0 2521.58 -1836.04 0 -813.579 -1819.13 0 
-185.113 -1829.74 0 -154.893 -1819.11 0 659.662 -1819.09 0 
2522.18 -1819.04 0 -814.129 -1818.87 0 -841.858 -1802.13 0 
-148.111 -1816.72 0 -111.109 -1803.71 0 -106.572 -1802.11 0 
656.876 -1802.09 0 2522.79 -1802.04 0 -851.129 -1796.55 0 
-862.071 -1785.13 0 -74.1073 -1790.69 0 -70.8696 -1785.11 0 
654.27 -1785.09 0 2523.4 -1785.04 0 -878.359 -1768.13 0 
-60.7148 -1768.11 0 651.809 -1768.09 0 2524 -1768.04 0 
-888.127 -1757.93 0 -894.648 -1751.13 0 -50.1034 -1751.1 0 
650.152 -1751.09 0 2524.61 -1751.03 0 -910.937 -1734.13 0 
-39.0038 -1734.1 0 648.495 -1734.08 0 2525.22 -1734.03 0 
-925.126 -1719.32 0 -927.226 -1717.13 0 -37.1028 -1731.27 0 
-29.0572 -1717.1 0 646.837 -1717.08 0 1275.01 -1717.07 0 
1294.93 -1728.22 0 1331.93 -1729.98 0 1368.94 -1728.17 0 
1405.94 -1726.36 0 1442.94 -1724.55 0 1479.94 -1722.74 0 
1516.94 -1720.93 0 1553.94 -1719.11 0 1590.94 -1717.3 0 
1595.55 -1717.06 0 2525.82 -1717.03 0 -943.514 -1700.13 0 
-19.4012 -1700.1 0 645.187 -1700.08 0 1248.11 -1700.07 0 
1257.93 -1707.51 0 1627.94 -1715.35 0 1664.94 -1709.05 0 
1674.71 -1700.05 0 2526.43 -1700.03 0 -959.803 -1683.12 0 
-9.74524 -1683.1 0 643.631 -1683.08 0 1230.23 -1683.07 0 
1687.47 -1683.05 0 2527.03 -1683.03 0 -962.125 -1680.7 0 
-976.092 -1666.12 0 -0.0980009 -1666.11 0 -0.0892765 -1666.1 0 
642.078 -1666.08 0 1216.34 -1666.07 0 1220.93 -1671.8 0 
1695.82 -1666.05 0 2527.64 -1666.03 0 -992.38 -1649.12 0 
9.5667 -1649.1 0 640.525 -1649.08 0 1202.73 -1649.06 0 
1701.95 -1657.01 0 1707.43 -1649.05 0 2528.25 -1649.03 0 
-999.124 -1642.09 0 -1008.67 -1632.12 0 19.2227 -1632.1 0 
638.437 -1632.08 0 1189.12 -1632.06 0 1720.45 -1632.05 0 
2528.85 -1632.03 0 -1024.96 -1615.12 0 28.8787 -1615.09 0 
636.073 -1615.08 0 1175.51 -1615.06 0 1183.94 -1625.59 0 
1733.48 -1615.05 0 2529.46 -1615.03 0 -1036.12 -1603.47 0 
-1041.25 -1598.12 0 36.9068 -1600.96 0 38.5346 -1598.09 0 
634.182 -1598.08 0 1161.37 -1598.06 0 1738.95 -1607.9 0 
1746.5 -1598.05 0 2530.06 -1598.03 0 -1057.54 -1581.12 0 
48.1906 -1581.09 0 632.635 -1581.08 0 1146.8 -1581.06 0 
1146.94 -1581.22 0 1759.53 -1581.05 0 2530.67 -1581.02 0 
-1072.58 -1564.12 0 57.7998 -1564.09 0 631.346 -1564.07 0 
1126.21 -1564.06 0 1772.55 -1564.04 0 2531.79 -1564.02 0 
-1073.12 -1563.48 0 -1086.88 -1547.12 0 66.447 -1547.09 0 
630.255 -1547.07 0 1105.57 -1547.06 0 1109.94 -1550.66 0 
1775.96 -1559.6 0 1785.58 -1547.04 0 2533.6 -1547.02 0 
-1101.19 -1530.12 0 73.9119 -1531.47 0 74.5655 -1530.09 0 
625.712 -1530.07 0 628.926 -1540.47 0 1084.94 -1530.06 0 
1798.6 -1530.04 0 2535.47 -1530.02 0 -1110.12 -1519.5 0 
-1115.49 -1513.12 0 82.5983 -1513.09 0 620.898 -1513.07 0 
1064.31 -1513.06 0 1072.94 -1520.17 0 1811.63 -1513.04 0 
2537.35 -1513.02 0 -1129.8 -1496.12 0 90.631 -1496.09 0 
617.004 -1496.07 0 1043.68 -1496.06 0 1812.96 -1511.3 0 
1822.7 -1496.04 0 2539.23 -1496.02 0 -1144.1 -1479.12 0 
98.6638 -1479.08 0 613.79 -1479.07 0 1023.13 -1479.06 0 
1035.94 -1489.68 0 1831.38 -1479.04 0 2541.1 -1479.02 0 
-1147.12 -1475.53 0 -1158.41 -1462.12 0 106.697 -1462.08 0 
611.092 -1462.07 0 1002.82 -1462.06 0 1838.42 -1462.04 0 
2542.98 -1462.02 0 -1172.71 -1445.12 0 110.918 -1453.15 0 
114.729 -1445.08 0 608.27 -1445.07 0 988.735 -1445.06 0 
998.941 -1458.79 0 1844.2 -1445.04 0 2544.86 -1445.02 0 
-1184.12 -1431.56 0 -1187.02 -1428.12 0 122.762 -1428.08 0 
604.554 -1428.07 0 976.051 -1428.06 0 1849.05 -1428.03 0 
2546.73 -1428.02 0 -1201.32 -1411.12 0 130.795 -1411.08 0 
600.837 -1411.07 0 963.314 -1411.06 0 1849.97 -1424.83 0 
1853.91 -1411.03 0 2548.61 -1411.01 0 -1215.62 -1394.11 0 
139.054 -1394.08 0 597.121 -1394.07 0 952.394 -1394.06 0 
961.943 -1409.23 0 1858.76 -1394.03 0 2550.49 -1394.01 0 
-1221.11 -1387.59 0 -1229.93 -1377.11 0 147.004 -1377.08 0 
593.404 -1377.06 0 941.697 -1377.06 0 1863.61 -1377.03 0 
2552.36 -1377.01 0 -1244.23 -1360.11 0 147.923 -1375.81 0 
159.567 -1360.08 0 589.653 -1360.06 0 591.935 -1370.35 0 
930.999 -1360.05 0 1868.47 -1360.03 0 2547.58 -1360.01 0 
-1254.77 -1343.11 0 171.63 -1343.07 0 585.971 -1343.06 0 
920.302 -1343.05 0 924.946 -1350.43 0 1873.32 -1343.03 0 
2543.93 -1343.01 0 -1258.11 -1334.45 0 -1260.54 -1326.11 0 
183.868 -1326.07 0 582.254 -1326.06 0 909.605 -1326.05 0 
1878.18 -1326.03 0 2540.85 -1326.01 0 -1265.48 -1309.11 0 
184.927 -1324.6 0 194.316 -1309.07 0 577.184 -1309.06 0 
898.907 -1309.05 0 1883.03 -1309.03 0 2536.82 -1309.01 0 
-1270.42 -1292.11 0 201.176 -1292.07 0 568.662 -1292.06 0 
888.21 -1292.05 0 1886.97 -1295.21 0 1887.88 -1292.03 0 
2532.79 -1292.01 0 -1275.36 -1275.11 0 206.004 -1275.07 0 
562.815 -1275.06 0 877.512 -1275.05 0 887.948 -1291.64 0 
1892.74 -1275.02 0 2528.76 -1275.01 0 -1280.31 -1258.11 0 
208.425 -1258.07 0 558.075 -1258.06 0 866.815 -1258.05 0 
1897.59 -1258.02 0 2524.73 -1258.01 0 -1285.25 -1241.11 0 
210.097 -1241.07 0 554.034 -1241.06 0 554.942 -1245.02 0 
857.041 -1241.05 0 1904.68 -1241.02 0 2520.7 -1241 0 
-1290.19 -1224.11 0 211.768 -1224.07 0 550.146 -1224.06 0 
848.733 -1224.05 0 850.951 -1228.94 0 1912.34 -1224.02 0 
2516.67 -1224 0 -1295.11 -1207.21 0 -1295.14 -1207.11 0 
213.439 -1207.07 0 546.267 -1207.06 0 841.023 -1207.05 0 
1920 -1207.02 0 2516 -1221.15 0 2512.64 -1207 0 
-1300.08 -1190.11 0 215.11 -1190.06 0 542.397 -1190.06 0 
833.312 -1190.05 0 1923.98 -1198.18 0 1927.47 -1190.02 0 
2508.61 -1190 0 -1305.02 -1173.1 0 216.782 -1173.06 0 
538.536 -1173.05 0 825.601 -1173.05 0 1934.49 -1173.02 0 
2504.69 -1173 0 -1309.97 -1156.1 0 218.453 -1156.06 0 
534.684 -1156.05 0 817.89 -1156.05 0 1236.65 -1156.03 0 
1257.97 -1158.24 0 1294.97 -1162.07 0 1331.97 -1165.91 0 
1368.97 -1169.74 0 1405.97 -1172.68 0 1442.97 -1166.01 0 
[...]
POINT_DATA 8839
SCALARS Pressure double
LOOKUP_TABLE default
3.0947782793 3.0947782793 3.0947782793 3.0947782793 3.0947782793 3.0947782793 3.0947782793 3.0947782793 3.0947782793 
3.0947782793 3.0947782793 3.0947782793 3.0947782793 3.0947782793 3.0947782793 3.0947782793 3.0947782793 3.0947782793 
3.0947782793 3.0947782793 3.0947782793 3.0947782793 3.0947782793 3.0947782793 3.0947782793 3.0947782793 3.0947782793 
3.0947782793 3.0947782793 3.0947782793 3.0947782793 3.0947782793 3.0947782793 3.0947782793 3.0947782793 3.0947782793 
3.0947782793 3.0947782793 3.0947782793 3.0947782793 3.0947782793 3.0947782793 3.0947782793 3.0947782793 3.0947782793 
3.0947782793 3.0947782793 3.0947782793 3.0947782793 3.0947782793 3.0947782793 3.0947782793 3.0947782793 3.0947782793 
3.0947782793 3.0947782793 3.0947782793 3.0947782793 3.0947782793 3.0947782793 3.0947782793 3.0947782793 3.0947782793 
3.0947782793 3.0947782793 3.0947782793 3.0947782793 3.0947782793 3.0947782793 3.0947782793 3.0947782793 3.0947782793 
3.0947782793 3.0947782793 3.0947782793 3.0947782793 3.0947782793 3.0947782793 3.0947782793 3.0947782793 3.0947782793 
3.0947782793 3.0947782793 3.0947782793 3.0947782793 3.0947782793 3.0947782793 3.0947782793 3.0947782793 3.0947782793 
3.0947782793 3.0947782793 3.0947782793 3.0947782793 3.0947782793 3.0947782793 3.0947782793 3.0947782793 3.0947782793 
3.0947782793 3.0947782793 3.0947782793 3.0947782793 3.0947782793 3.0947782793 3.0947782793 3.0947782793 3.0947782793 
3.0947782793 3.0947782793 3.0947782793 3.0947782793 3.0947782793 3.0947782793 3.0947782793 3.0947782793 3.0947782793 
3.0947782793 3.0947782793 3.0947782793 3.0947782793 3.0947782793 3.0947782793 3.0947782793 3.0947782793 3.0947782793 
3.0947782793 3.0947782793 3.0947782793 3.0947782793 3.0947782793 3.0947782793 3.0947782793 3.0947782793 3.0947782793 
3.0947782793 3.0947782793 3.0947782793 3.0947782793 3.0947782793 3.0947782793 3.0947782793 3.0947782793 3.0947782793 
3.0947782793 3.0947782793 3.0947782793 3.0947782793 3.0947782793 3.0947782793 3.0947782793 3.0947782793 3.0947782793 
3.0947782793 3.0947782793 3.0947782793 3.0947782793 3.0947782793 3.0947782793 3.0947782793 3.0947782793 3.0947782793 
3.0947782793 3.0947782793 3.0947782793 3.0947782793 3.0947782793 3.0947782793 3.0947782793 3.0947782793 3.0947782793 
3.0947782793 3.0947782793 3.0947782793 3.0947782793 3.0947782793 3.0947782793 3.0947782793 3.0947782793 3.0947782793 
3.0947782793 3.0947782793 3.0947782793 3.0947782793 3.0824479919 3.0824479919 3.0824479919 3.0824479919 3.0824479919 
3.0824479919 3.0947782793 3.0947782793 3.0824479919 3.0824479919 3.0824479919 3.0824479919 3.0824479919 3.0824479919 
3.0824479919 3.0947782793 3.0947782793 3.0824479919 3.0824479919 3.0824479919 3.0824479919 3.0947782793 3.0947782793 
3.0824479919 3.0824479919 3.0824479919 3.0824479919 3.0824479919 3.0947782793 3.0947782793 3.0947782793 3.0824479919 
3.0824479919 3.0824479919 3.0824479919 3.0947782793 3.0947782793 3.0824479919 3.0824479919 3.0824479919 3.0947782793 
3.0947782793 3.0824479919 3.0824479919 3.0824479919 3.0824479919 3.0824479919 3.0947782793 3.0947782793 3.0824479919 
3.0824479919 3.0824479919 3.0824479919 3.0947782793 3.0947782793 3.0824479919 3.0824479919 3.0947782793 3.0947782793 
3.0824479919 3.0824479919 3.0824479919 3.0947782793 3.0947782793 3.0824479919 3.0824479919 3.0947782793 3.0947782793 
3.0824479919 3.0824479919 3.0824479919 3.0824479919 3.0947782793 3.1071085668 3.1071085668 3.1071085668 3.1071085668 
3.1071085668 3.1071085668 3.1071085668 3.1071085668 3.1071085668 3.1071085668 3.1071085668 3.0947782793 3.0824479919 
3.0824479919 3.0947782793 3.1071085668 3.1071085668 3.1071085668 3.1071085668 3.1071085668 3.0947782793 3.0824479919 
3.0824479919 3.0947782793 3.1071085668 3.1071085668 3.0947782793 3.0824479919 3.0824479919 3.0824479919 3.0824479919 
3.0947782793 3.1071085668 3.1071085668 3.1071085668 3.0947782793 3.0824479919 3.0824479919 3.0947782793 3.1071085668 
3.1071085668 3.1071085668 3.0947782793 3.0824479919 3.0824479919 3.0824479919 3.0947782793 3.1071085668 3.1071085668 
3.0947782793 3.0824479919 3.0824479919 3.0947782793 3.1071085668 3.1071085668 3.1071085668 3.0947782793 3.0824479919 
3.0824479919 3.0824479919 3.0824479919 3.0947782793 3.1071085668 3.1071085668 3.1071085668 3.0947782793 3.0824479919 
3.0824479919 3.0947782793 3.1071085668 3.1071085668 3.1071085668 3.0947782793 3.0824479919 3.0824479919 3.0947782793 
3.1071085668 3.1071085668 3.0947782793 3.0824479919 3.0824479919 3.0824479919 3.0947782793 3.1071085668 3.1071085668 
3.1071085668 3.1071085668 3.0947782793 3.0824479919 3.0824479919 3.0824479919 3.0947782793 3.0947782793 3.1071085668 
3.1071085668 3.0947782793 3.0824479919 3.0824479919 3.0824479919 3.0947782793 3.1071085668 3.1071085668 3.1071085668 
3.0947782793 3.0824479919 3.0824479919 3.0947782793 3.1071085668 3.1071085668 3.1071085668 3.0947782793 3.0824479919 
3.0824479919 3.0947782793 3.1071085668 3.1071085668 3.1071085668 3.0947782793 3.0824479919 3.0824479919 3.0824479919 
3.0947782793 3.1071085668 3.1071085668 3.0947782793 3.0824479919 3.0824479919 3.0824479919 3.0947782793 3.1071085668 
3.1071085668 3.1071085668 3.0947782793 3.0824479919 3.0824479919 3.0824479919 3.0947782793 3.1071085668 3.1071085668 
3.0947782793 3.0824479919 3.0824479919 3.0947782793 3.1071085668 3.1071085668 3.1071085668 3.0947782793 3.0824479919 
3.0824479919 3.0947782793 3.1071085668 3.1071085668 3.1071085668 3.0947782793 3.0824479919 3.0824479919 3.0824479919 
3.0947782793 3.1071085668 3.1071085668 3.0947782793 3.0824479919 3.0824479919 3.0824479919 3.0947782793 3.0947782793 
3.1071085668 3.1071085668 3.0947782793 3.0824479919 3.0824479919 3.0947782793 3.1071085668 3.1071085668 3.1071085668 
3.0947782793 3.0824479919 3.0824479919 3.0824479919 3.0947782793 3.1071085668 3.1071085668 3.0947782793 3.0824479919 
3.0824479919 3.0824479919 3.0947782793 3.1071085668 3.1071085668 3.0947782793 3.0824479919 3.0824479919 3.0947782793 
3.1071085668 3.1071085668 3.1071085668 3.0947782793 3.0824479919 3.0824479919 3.0947782793 3.1071085668 3.1071085668 
3.1071085668 3.0947782793 3.0824479919 3.0824479919 3.0947782793 3.1071085668 3.1071085668 3.0947782793 3.0824479919 
3.0824479919 3.0947782793 3.0947782793 3.1071085668 3.1071085668 3.0947782793 3.0824479919 3.0824479919 3.0947782793 
3.1071085668 3.1071085668 3.1071085668 3.0947782793 3.0824479919 3.0824479919 3.0824479919 3.0947782793 3.1071085668 
3.1071085668 3.0947782793 3.0947782793 3.0824479919 3.0824479919 3.0947782793 3.1071085668 3.1071085668 3.1071085668 
3.0947782793 3.0824479919 3.0824479919 3.0947782793 3.1071085668 3.1071085668 3.0947782793 3.0824479919 3.0824479919 
3.0947782793 3.1071085668 3.1194388543 3.1194388543 3.1194388543 3.1194388543 3.1194388543 3.1194388543 3.1194388543 
3.1194388543 3.1071085668 3.0947782793 3.0824479919 3.0824479919 3.0947782793 3.1071085668 3.1071085668 3.1194388543 
3.1194388543 3.1194388543 3.1071085668 3.0947782793 3.0824479919 3.0824479919 3.0947782793 3.1071085668 3.1194388543 
3.1194388543 3.1194388543 3.1194388543 3.1071085668 3.0947782793 3.0824479919 3.0824479919 3.0824479919 3.0947782793 
3.1071085668 3.1194388543 3.1194388543 3.1071085668 3.0947782793 3.0824479919 3.0824479919 3.0947782793 3.1071085668 
3.1194388543 3.1194388543 3.1194388543 3.1071085668 3.1071085668 3.0947782793 3.0824479919 3.0824479919 3.0824479919 
3.0947782793 3.0947782793 3.1071085668 3.1194388543 3.1194388543 3.1194388543 3.1071085668 3.0947782793 3.0824479919 
3.0824479919 3.0947782793 3.1071085668 3.1071085668 3.1194388543 3.1194388543 3.1194388543 3.1071085668 3.0947782793 
3.0824479919 3.0824479919 3.0947782793 3.1071085668 3.1194388543 3.1194388543 3.1194388543 3.1071085668 3.0947782793 
3.0824479919 3.0824479919 3.0947782793 3.1071085668 3.1194388543 3.1194388543 3.1194388543 3.1071085668 3.0947782793 
3.0824479919 3.0824479919 3.0947782793 3.1071085668 3.1194388543 3.1194388543 3.1194388543 3.1071085668 3.0947782793 
3.0824479919 3.0824479919 3.0947782793 3.1071085668 3.1071085668 3.1194388543 3.1194388543 3.1194388543 3.1194388543 
3.1071085668 3.1071085668 3.0947782793 3.0824479919 3.0824479919 3.0947782793 3.1071085668 3.1194388543 3.1194388543 
3.1071085668 3.0947782793 3.0824479919 3.0824479919 3.0947782793 3.1071085668 3.1194388543 3.1194388543 3.1071085668 
3.0947782793 3.0947782793 3.0824479919 3.0824479919 3.0824479919 3.0947782793 3.1071085668 3.1194388543 3.1194388543 
3.1194388543 3.1071085668 3.0947782793 3.0824479919 3.0824479919 3.0947782793 3.1071085668 3.1071085668 3.1194388543 
3.1194388543 3.1194388543 3.1071085668 3.0947782793 3.0824479919 3.0824479919 3.0947782793 3.0947782793 3.1071085668 
3.1194388543 3.1194388543 3.1071085668 3.1071085668 3.0947782793 3.0824479919 3.0701177044 3.0701177044 3.0701177044 
3.0701177044 3.0701177044 3.0701177044 3.0701177044 3.0701177044 3.0824479919 3.0947782793 3.1071085668 3.1194388543 
3.1194388543 3.1194388543 3.1071085668 3.0947782793 3.0824479919 3.0701177044 3.0701177044 3.0701177044 3.0824479919 
3.0947782793 3.1071085668 3.1194388543 3.1194388543 3.1071085668 3.0947782793 3.0824479919 3.0701177044 3.0701177044 
3.0701177044 3.0701177044 3.0701177044 3.0824479919 3.0947782793 3.1071085668 3.1071085668 3.1194388543 3.1194388543 
3.1194388543 3.1194388543 3.1071085668 3.0947782793 3.0824479919 3.0701177044 3.0701177044 3.0701177044 3.0701177044 
3.0824479919 3.0947782793 3.1071085668 3.1194388543 3.1194388543 3.1071085668 3.0947782793 3.0824479919 3.0701177044 
3.0701177044 3.0701177044 3.0824479919 3.0947782793 3.1071085668 3.1194388543 3.1194388543 3.1071085668 3.0947782793 
3.0824479919 3.0824479919 3.0824479919 3.0824479919 3.0824479919 3.0824479919 3.0701177044 3.0701177044 3.0701177044 
3.0824479919 3.0824479919 3.0947782793 3.1071085668 3.1194388543 3.1194388543 3.1317691418 3.1317691418 3.1317691418 
3.1317691418 3.1317691418 3.1317691418 3.1317691418 3.1317691418 3.1194388543 3.1071085668 3.1071085668 3.0947782793 
3.0824479919 3.0824479919 3.0824479919 3.0824479919 3.0824479919 3.0824479919 3.0701177044 3.0701177044 3.0824479919 
3.0947782793 3.0947782793 3.1071085668 3.1194388543 3.1317691418 3.1317691418 3.1194388543 3.1071085668 3.0947782793 
3.0824479919 3.0824479919 3.0824479919 3.0824479919 3.0824479919 3.0824479919 3.0824479919 3.0701177044 3.0701177044 
3.0701177044 3.0701177044 3.0824479919 3.0947782793 3.1071085668 3.1071085668 3.1194388543 3.1317691418 3.1317691418 
3.1317691418 3.1317691418 3.1194388543 3.1194388543 3.1071085668 3.0947782793 3.0824479919 3.0824479919 3.0824479919 
3.0824479919 3.0824479919 3.0824479919 3.0701177044 3.0701177044 3.0701177044 3.0824479919 3.0947782793 3.1071085668 
3.1194388543 3.1317691418 3.1317691418 3.1317691418 3.1194388543 3.1071085668 3.0947782793 3.0824479919 3.0824479919 
3.0824479919 3.0824479919 3.0824479919 3.0701177044 3.0701177044 3.0824479919 3.0947782793 3.1071085668 3.1194388543 
3.1194388543 3.1317691418 3.1317691418 3.1317691418 3.1194388543 3.1071085668 3.0947782793 3.0824479919 3.0824479919 
3.0824479919 3.0824479919 3.0824479919 3.0824479919 3.0701177044 3.0701177044 3.0701177044 3.0701177044 3.0824479919 
3.0947782793 3.1071085668 3.1194388543 3.1317691418 3.1317691418 3.1317691418 3.1194388543 3.1071085668 3.0947782793 
3.0824479919 3.0824479919 3.0824479919 3.0824479919 3.0824479919 3.0701177044 3.0701177044 3.0824479919 3.0947782793 
3.1071085668 3.1071085668 3.1194388543 3.1317691418 3.1317691418 3.1317691418 3.1194388543 3.1071085668 3.0947782793 
3.0947782793 3.0824479919 3.0824479919 3.0824479919 3.0701177044 3.0701177044 3.0824479919 3.0947782793 3.1071085668 
3.1194388543 3.1194388543 3.1317691418 3.1317691418 3.1194388543 3.1071085668 3.0947782793 3.0824479919 3.0824479919 
3.0824479919 3.0824479919 3.0824479919 3.0701177044 3.0701177044 3.0824479919 3.0947782793 3.1071085668 3.1194388543 
3.1317691418 3.1317691418 3.1317691418 3.1317691418 3.1194388543 3.1071085668 3.0947782793 3.0824479919 3.0824479919 
3.0824479919 3.0701177044 3.0701177044 3.0701177044 3.0824479919 3.0947782793 3.1071085668 3.1194388543 3.1317691418 
3.1317691418 3.1317691418 3.1194388543 3.1071085668 3.1071085668 3.0947782793 3.0824479919 3.0824479919 3.0824479919 
3.0701177044 3.0701177044 3.0701177044 3.0824479919 3.0947782793 3.1071085668 3.1194388543 3.1194388543 3.1317691418 
3.1317691418 3.1194388543 3.1194388543 3.1071085668 3.0947782793 3.0824479919 3.0824479919 3.0824479919 3.0701177044 
3.0701177044 3.0824479919 3.0947782793 3.1071085668 3.1194388543 3.1317691418 3.1317691418 3.1317691418 3.1194388543 
3.1071085668 3.0947782793 3.0824479919 3.0824479919 3.0824479919 3.0824479919 3.0701177044 3.0701177044 3.0824479919 
3.0947782793 3.0947782793 3.1071085668 3.1071085668 3.1194388543 3.1317691418 3.1317691418 3.1317691418 3.1194388543 
3.1071085668 3.0947782793 3.0824479919 3.0824479919 3.0824479919 3.0824479919 3.0701177044 3.0701177044 3.0824479919 
3.0947782793 3.1071085668 3.1194388543 3.1194388543 3.1317691418 3.1317691418 3.1317691418 3.1194388543 3.1071085668 
3.0947782793 3.0824479919 3.0824479919 3.0824479919 3.0701177044 3.0701177044 3.0824479919 3.0947782793 3.1071085668 
3.1194388543 3.1317691418 3.1317691418 3.1194388543 3.1071085668 3.0947782793 3.0824479919 3.0824479919 3.0824479919 
3.0824479919 3.0701177044 3.0577874169 3.0577874169 3.0577874169 3.0577874169 3.0577874169 3.0577874169 3.0701177044 
3.0701177044 3.0824479919 3.0947782793 3.1071085668 3.1194388543 3.1194388543 3.1317691418 3.1317691418 3.1317691418 
3.1194388543 3.1071085668 3.0947782793 3.0947782793 3.0824479919 3.0824479919 3.0824479919 3.0701177044 3.0577874169 
3.0577874169 3.0577874169 3.0577874169 3.0577874169 3.0701177044 3.0824479919 3.0947782793 3.1071085668 3.1071085668 
3.1194388543 3.1317691418 3.1317691418 3.1194388543 3.1071085668 3.0947782793 3.0824479919 3.0824479919 3.0824479919 
3.0701177044 3.0577874169 3.0577874169 3.0577874169 3.0701177044 3.0824479919 3.0947782793 3.1071085668 3.1194388543 
3.1317691418 3.1317691418 3.1317691418 3.1194388543 3.1071085668 3.0947782793 3.0824479919 3.0824479919 3.0824479919 
3.0824479919 3.0701177044 3.0701177044 3.0577874169 3.0577874169 3.0577874169 3.0577874169 3.0701177044 3.0824479919 
3.0947782793 3.1071085668 3.1194388543 3.1194388543 3.1317691418 3.1440994292 3.1440994292 3.1440994292 3.1440994292 
3.1440994292 3.1440994292 3.1317691418 3.1194388543 3.1071085668 3.1071085668 3.0947782793 3.0824479919 3.0824479919 
3.0824479919 3.0824479919 3.0701177044 3.0577874169 3.0577874169 3.0701177044 3.0824479919 3.0947782793 3.1071085668 
3.1194388543 3.1317691418 3.1317691418 3.1440994292 3.1440994292 3.1440994292 3.1317691418 3.1317691418 3.1194388543 
3.1071085668 3.1071085668 3.0947782793 3.0824479919 3.0824479919 3.0824479919 3.0701177044 3.0577874169 3.0577874169 
3.0701177044 3.0824479919 3.0947782793 3.1071085668 3.1071085668 3.1194388543 3.1317691418 3.1440994292 3.1440994292 
3.1440994292 3.1317691418 3.1194388543 3.1071085668 3.0947782793 3.0824479919 3.0824479919 3.0824479919 3.0824479919 
3.0701177044 3.0577874169 3.0577874169 3.0577874169 3.0701177044 3.0824479919 3.0947782793 3.0947782793 3.1071085668 
3.1194388543 3.1194388543 3.1317691418 3.1440994292 3.1440994292 3.1440994292 3.1317691418 3.1194388543 3.1071085668 
3.0947782793 3.0824479919 3.0824479919 3.0824479919 3.0824479919 3.0701177044 3.0577874169 3.0577874169 3.0577874169 
3.0701177044 3.0824479919 3.0947782793 3.1071085668 3.1194388543 3.1317691418 3.1317691418 3.1440994292 3.1440994292 
3.1440994292 3.1440994292 3.1317691418 3.1194388543 3.1071085668 3.0947782793 3.0824479919 3.0824479919 3.0824479919 
3.0824479919 3.0824479919 3.0824479919 3.0824479919 3.0701177044 3.0701177044 3.0577874169 3.0577874169 3.0701177044 
3.0824479919 3.0824479919 3.0947782793 3.1071085668 3.1194388543 3.1317691418 3.1440994292 3.1440994292 3.1317691418 
3.1194388543 3.1071085668 3.0947782793 3.0824479919 3.0824479919 3.0824479919 3.0824479919 3.0824479919 3.0824479919 
3.0824479919 3.0824479919 3.0824479919 3.0824479919 3.0701177044 3.0577874169 3.0577874169 3.0701177044 3.0824479919 
3.0947782793 3.1071085668 3.1071085668 3.1194388543 3.1194388543 3.1317691418 3.1317691418 3.1440994292 3.1440994292 
3.1440994292 3.1317691418 3.1194388543 3.1071085668 3.0947782793 3.0824479919 3.0824479919 3.0824479919 3.0824479919 
3.0824479919 3.0824479919 3.0824479919 3.0824479919 3.0824479919 3.0824479919 3.0701177044 3.0577874169 3.0577874169 
3.0454571294 3.0454571294 3.0454571294 3.0454571294 3.0577874169 3.0701177044 3.0824479919 3.0947782793 3.1071085668 
3.1194388543 3.1317691418 3.1440994292 3.1440994292 3.1440994292 3.1317691418 3.1194388543 3.1071085668 3.0947782793 
3.0824479919 3.0824479919 3.0824479919 3.0824479919 3.0824479919 3.0824479919 3.0824479919 3.0824479919 3.0824479919 
3.0824479919 3.0824479919 3.0824479919 3.0824479919 3.0824479919 3.0824479919 3.0824479919 3.0701177044 3.0577874169 
3.0454571294 3.0454571294 3.0454571294 3.0454571294 3.0577874169 3.0577874169 3.0701177044 3.0824479919 3.0947782793 
3.0947782793 3.1071085668 3.1194388543 3.1317691418 3.1440994292 3.1440994292 3.1440994292 3.1317691418 3.1194388543 
3.1071085668 3.0947782793 3.0947782793 3.0824479919 3.0824479919 3.0824479919 3.0824479919 3.0824479919 3.0824479919 
3.0824479919 3.0824479919 3.0824479919 3.0824479919 3.0824479919 3.0824479919 3.0824479919 3.0824479919 3.0824479919 
3.0824479919 3.0824479919 3.0824479919 3.0824479919 3.0824479919 3.0824479919 3.0701177044 3.0577874169 3.0454571294 
3.0454571294 3.0577874169 3.0701177044 3.0824479919 3.0947782793 3.1071085668 3.1194388543 3.1317691418 3.1440994292 
3.1440994292 3.1317691418 3.1194388543 3.1071085668 3.0947782793 3.0824479919 3.0701177044 3.0701177044 3.0701177044 
3.0824479919 3.0824479919 3.0824479919 3.0824479919 3.0824479919 3.0824479919 3.0824479919 3.0824479919 3.0824479919 
3.0824479919 3.0824479919 3.0824479919 3.0824479919 3.0824479919 3.0824479919 3.0824479919 3.0824479919 3.0824479919 
3.0824479919 3.0701177044 3.0577874169 3.0454571294 3.0454571294 3.0454571294 3.0454571294 3.0577874169 3.0701177044 
3.0824479919 3.0947782793 3.1071085668 3.1071085668 3.1194388543 3.1194388543 3.1317691418 3.1317691418 3.1440994292 
3.1440994292 3.1440994292 3.1317691418 3.1194388543 3.1071085668 3.0947782793 3.0824479919 3.0701177044 3.0701177044 
3.0701177044 3.0701177044 3.0824479919 3.0824479919 3.0824479919 3.0824479919 3.0824479919 3.0824479919 3.0824479919 
3.0824479919 3.0824479919 3.0701177044 3.0577874169 3.0577874169 3.0454571294 3.0454571294 3.0454571294 3.0577874169 
3.0701177044 3.0824479919 3.0947782793 3.1071085668 3.1194388543 3.1317691418 3.1440994292 3.1440994292 3.1317691418 
3.1194388543 3.1071085668 3.1071085668 3.0947782793 3.0824479919 3.0701177044 3.0701177044 3.0701177044 3.0701177044 
3.0701177044 3.0824479919 3.0824479919 3.0824479919 3.0701177044 3.0577874169 3.0454571294 3.0454571294 3.0577874169 
3.0701177044 3.0824479919 3.0947782793 3.1071085668 3.1194388543 3.1317691418 3.1440994292 3.1440994292 3.1317691418 
3.1194388543 3.1071085668 3.1071085668 3.0947782793 3.0824479919 3.0701177044 3.0701177044 3.0824479919 3.0824479919 
3.0824479919 3.0824479919 3.0701177044 3.0577874169 3.0454571294 3.0454571294 3.0454571294 3.0577874169 3.0701177044 
3.0824479919 3.0947782793 3.0947782793 3.1071085668 3.1194388543 3.1317691418 3.1440994292 3.1440994292 3.1317691418 
3.1194388543 3.1071085668 3.0947782793 3.0824479919 3.0701177044 3.0701177044 3.0824479919 3.0824479919 3.0824479919 
3.0701177044 3.0577874169 3.0454571294 3.0454571294 3.0454571294 3.0577874169 3.0701177044 3.0824479919 3.0947782793 
3.1071085668 3.1071085668 3.1194388543 3.1194388543 3.1317691418 3.1317691418 3.1440994292 3.1440994292 3.1440994292 
3.1317691418 3.1194388543 3.1194388543 3.1071085668 3.0947782793 3.0824479919 3.0701177044 3.0701177044 3.0701177044 