# vtk DataFile Version 4.2
vtk output
ASCII
DATASET UNSTRUCTURED_GRID
POINTS 1740 double
2144.07 -94.44003 0 2911 0 0 16.54298 -37.82236 0 
5.09149 -21.30132 0 1.27433 -10.75385 0 0 0 0 
2.54575 15.14293 0 6.36291 23.76126 0 14.00014 34.89063 0 
30.50239 50.70793 0 33.39435 -52.93479 0 2050.91 -103.7862 0 
60.1465 -69.72165 0 88.83633 -83.2817 0 118.7656 -94.71113 0 
153.4168 -105.7022 0 199.5806 -117.771 0 261.4466 -130.7139 0 
345.846 -144.1892 0 460.3522 -157.0592 0 608.4185 -167.1903 0 
783.2313 -172.4016 0 941.0559 -172.4533 0 1063.409 -170.1096 0 
1164.153 -166.8746 0 1263.449 -162.682 0 1375.468 -156.8941 0 
1513.293 -148.414 0 1665.281 -137.5317 0 1791.864 -127.3721 0 
2195.451 -89.09491 0 2273.924 -80.67077 0 2383.731 -68.3513 0 
2517.64 -52.47337 0 2649.227 -35.9232 0 2740.773 -23.82991 0 
2804.387 -15.13419 0 2848.802 -8.916218 0 2881.944 -4.196067 0 
56.61447 67.79801 0 84.09687 81.25172 0 112.4783 92.48395 0 
142.1748 102.3504 0 174.8563 111.6168 0 213.124 120.8806 0 
260.3759 130.5151 0 324.6539 141.1779 0 418.1422 152.9178 0 
535.6656 162.9871 0 690.9154 170.4255 0 902.6513 172.7852 0 
1100.32 169.0517 0 1270.99 162.3262 0 1462.794 151.6837 0 
1631.287 140.0952 0 1747.993 131 0 1922.788 115.9027 0 
2069.56 101.951 0 2128.804 96.0021 0 2297.147 78.11721 0 
2414.379 64.80104 0 2554.023 47.99319 0 2673.693 32.73885 0 
2757.97 21.50315 0 2814.297 13.7575 0 2852.02 8.460961 0 
2882.272 4.148909 0 1791.052 127.4402 0 1366.894 157.3738 0 
1444.38 -152.8302 0 1547.039 146.1296 0 1589.287 -143.1614 0 
1878.731 119.8675 0 1997.072 108.9828 0 1185.654 166.0472 0 
1882.536 -119.5292 0 1971.323 -111.4145 0 1684.777 136.0292 0 
2099.317 -98.9855 0 2234.809 84.9091 0 2181.695 90.53914 0 
1728.573 -132.5703 0 1718.815 133.3509 0 1834.825 123.7132 0 
1960.305 112.4444 0 2033.69 105.4648 0 2099.184 98.99892 0 
2214.291 -72.645035029 396.8421 2955.512 16.495206707 396.8421 158.0786 -25.170531017 396.8421 
147.0109 -9.3249585638 396.8421 143.3217 0.8134881541 396.8421 142.09 11.166963774 396.8421 
144.5505 25.773677235 396.8421 148.2398 34.101783184 396.8421 155.621 44.873388403 396.8421 
171.5701 60.217241125 396.8421 174.3652 -39.624728484 396.8421 2124.254 -81.612639409 396.8421 
200.2206 -55.630217228 396.8421 227.9488 -68.515560889 396.8421 256.8748 -79.341794006 396.8421 
290.3647 -89.718417364 396.8421 334.981 -101.06622163 396.8421 394.7733 -113.16798128 396.8421 
476.3434 -125.66242755 396.8421 587.0114 -137.4273041 396.8421 730.1145 -146.41856549 396.8421 
899.0676 -150.61070974 396.8421 1051.602 -149.99172145 396.8421 1169.853 -147.26998156 396.8421 
1267.221 -143.80875342 396.8421 1363.188 -139.46404523 396.8421 1471.452 -133.58491241 396.8421 
1604.657 -125.10529477 396.8421 1751.55 -114.36283183 396.8421 1873.891 -104.4289849 396.8421 
2263.949 -67.532086821 396.8421 2339.792 -59.494967008 396.8421 2445.918 -47.783907131 396.8421 
2575.338 -32.755919442 396.8421 2702.515 -17.160188108 396.8421 2790.992 -5.8028951706 396.8421 
2852.473 2.345635221 396.8421 2895.4 8.1638003089 396.8421 2927.431 12.575992161 396.8421 
196.807 76.846457794 396.8421 223.3682 89.978819623 396.8421 250.7983 100.97467067 396.8421 
279.4994 110.66078417 396.8421 311.0855 119.78481846 396.8421 348.0705 128.93705406 396.8421 
393.7383 138.49571275 396.8421 455.8617 149.13726453 396.8421 546.2162 160.96847788 396.8421 
659.8003 171.29687969 396.8421 809.846 179.24284061 396.8421 1014.485 182.47967187 396.8421 
1205.528 179.66628637 396.8421 1370.477 173.76325804 396.8421 1555.851 164.03608194 396.8421 
1718.696 153.21770082 396.8421 1831.49 144.62723094 396.8421 2000.426 130.22911986 396.8421 
2142.278 116.80279751 396.8421 2199.537 111.04835233 396.8421 2362.236 93.655940051 396.8421 
2475.539 80.627270992 396.8421 2610.501 64.09919332 396.8421 2726.16 49.028421365 396.8421 
2807.613 37.890124737 396.8421 2862.05 30.194670306 396.8421 2898.509 24.925010444 396.8421 
2927.749 20.630589988 396.8421 1873.106 141.24643916 396.8421 1463.165 169.27184404 396.8421 
1538.054 -129.50604122 396.8421 1637.272 158.87231717 396.8421 1678.104 -119.90458463 396.8421 
1957.846 134.02478086 396.8421 2072.22 123.58275561 396.8421 1288 177.07208116 396.8421 
1961.524 -96.808472544 396.8421 2047.334 -88.960476739 396.8421 1770.393 149.38645721 396.8421 
2171.038 -77.001915167 396.8421 2301.989 100.27611814 396.8421 2250.655 105.74988746 396.8421 
1812.721 -109.50192741 396.8421 1803.29 146.85447782 396.8421 1915.411 137.69694958 396.8421 
2036.686 126.91075374 396.8421 2107.61 120.19385534 396.8421 2170.909 113.94930255 396.8421 
2284.511 -56.25717912 793.6842 3000.027 28.686931953 793.6842 299.6143 -15.55966058 793.6842 
288.9304 -0.35724641984 793.6842 285.3691 9.3848554948 793.6842 284.1801 19.344907687 793.6842 
286.5551 33.415255025 793.6842 290.1167 41.447657552 793.6842 297.2417 51.848188659 793.6842 
312.6379 66.686951933 793.6842 315.336 -29.39951747 793.6842 2197.597 -64.891865892 793.6842 
340.2947 -44.690285304 793.6842 367.0612 -56.970222118 793.6842 394.9839 -67.26389668 793.6842 
427.3123 -77.106166208 793.6842 470.3812 -87.837423167 793.6842 528.0998 -99.234166609 793.6842 
606.8411 -110.92681051 793.6842 713.6708 -121.81751575 793.6842 851.8104 -129.946336 793.6842 
1014.904 -133.41484686 793.6842 1162.147 -132.36053431 793.6842 1276.298 -129.42118244 793.6842 
1370.288 -125.85069804 793.6842 1462.927 -121.4550972 793.6842 1567.436 -115.58188724 793.6842 
1696.021 -107.19552954 793.6842 1837.82 -96.659727146 793.6842 1955.917 -86.977241653 793.6842 
2332.447 -51.343708729 793.6842 2405.659 -43.633051828 793.6842 2508.105 -32.423576893 793.6842 
2633.037 -18.079005895 793.6842 2755.801 -3.2335140993 793.6842 2841.209 7.5544777829 793.6842 
2900.561 15.28392139 793.6842 2941.997 20.797893691 793.6842 2972.917 24.976774821 793.6842 
336.9995 82.802420768 793.6842 362.6396 95.55648865 793.6842 389.1182 106.25647466 793.6842 
416.8239 115.69984167 793.6842 447.3145 124.61272119 793.6842 483.0167 133.5729576 793.6842 
527.1009 142.95686871 793.6842 587.0697 153.44399051 793.6842 674.2905 165.17659633 793.6842 
783.9349 175.53318202 793.6842 928.7766 183.69778639 793.6842 1126.317 187.45488863 793.6842 
1310.735 185.27491079 793.6842 1469.963 179.9888438 793.6842 1648.908 170.99866128 793.6842 
1806.105 160.84522289 793.6842 1914.987 152.71679665 793.6842 2078.064 139.00403861 793.6842 
2214.996 126.14073613 793.6842 2270.269 120.60924489 793.6842 2427.326 103.83420855 793.6842 
2536.699 91.219872761 793.6842 2666.98 75.167362481 793.6842 2778.628 60.488026277 793.6842 
2857.255 49.616384488 793.6842 2909.806 42.095027439 793.6842 2945.001 36.940155472 793.6842 
2973.224 32.736761823 793.6842 1955.16 149.50581551 793.6842 1559.437 175.86188072 793.6842 
1631.729 -111.5381086 793.6842 1727.505 166.16637289 793.6842 1766.921 -102.08491679 793.6842 
2036.96 142.62809763 793.6842 2147.368 132.64432788 793.6842 1390.347 182.98303647 793.6842 
2040.511 -79.579776665 793.6842 2123.346 -71.984560319 793.6842 1856.009 157.22591801 793.6842 
2242.759 -60.449501165 793.6842 2369.167 110.22870012 793.6842 2319.614 115.50739595 793.6842 
1896.869 -91.915729431 793.6842 1887.765 154.82870865 793.6842 1995.998 146.12845254 793.6842 
2113.066 135.83091679 793.6842 2181.531 129.3955058 793.6842 2242.634 123.3990598 793.6842 
2354.732 -44.493160414 1190.526 3044.539 36.880326081 1190.526 441.15 -8.4200136121 1190.526 
430.8497 6.1677616211 1190.526 427.4164 15.52539217 1190.526 426.2701 25.099383293 1190.526 
428.5601 38.635823161 1190.526 431.9934 46.36960828 1190.526 438.8627 56.390433737 1190.526 
453.7057 70.701626019 1190.526 456.3069 -21.683204152 1190.526 2270.94 -52.808604946 1190.526 
480.3688 -36.315396558 1190.526 506.1737 -48.047751811 1190.526 533.0934 -57.867561022 1190.526 
564.26 -67.241876195 1190.526 605.7815 -77.442913996 1190.526 661.4265 -88.246982331 1190.526 
737.3385 -99.285906476 1190.526 840.33 -109.49362581 1190.526 973.5064 -116.99129518 1190.526 
1130.74 -119.98546555 1190.526 1272.693 -118.69719505 1190.526 1382.742 -115.6803386 1190.526 
1473.356 -112.10499936 1190.526 1562.666 -107.75118408 1190.526 1663.42 -101.97569534 1190.526 
1787.385 -93.776845526 1190.526 1924.09 -83.52596369 1190.526 2037.944 -74.138616969 1190.526 
2400.946 -39.766253595 1190.526 2471.527 -32.354932964 1190.526 2570.292 -21.593384389 1190.526 
2690.735 -7.8412637127 1190.526 2809.091 6.3717576364 1190.526 2891.43 16.68971262 1190.526 
2948.647 24.077657519 1190.526 2988.597 29.345814596 1190.526 3018.403 33.337317882 1190.526 
477.1918 86.264287174 1190.526 501.9109 98.597070515 1190.526 527.4382 108.95585484 1190.526 
554.1485 118.10840831 1190.526 583.5435 126.75683395 1190.526 617.963 135.46264943 1190.526 
660.4633 144.59457875 1190.526 718.2775 154.82259166 1190.526 802.3645 166.30607772 1190.526 
908.0698 176.50569723 1190.526 1047.707 184.65396589 1190.526 1238.151 188.63429764 1190.526 
1415.942 186.84071405 1190.526 1569.449 181.98640709 1190.526 1741.965 173.56115348 1190.526 
1893.514 163.95649416 1190.526 1998.484 156.23068682 1190.526 2155.702 143.14906738 1190.526 
2287.714 130.8376736 1190.526 2341.001 125.53406736 1190.526 2492.415 109.42141982 1190.526 
2597.858 97.281067842 1190.526 2723.46 81.806877507 1190.526 2831.095 67.635677016 1190.526 
2906.899 57.129293384 1190.526 2957.56 49.855740299 1190.526 2991.49 44.868532171 1190.526 
3018.699 40.80062522 1190.526 2037.214 153.17228952 1190.526 1655.708 178.13287289 1190.526 
1725.403 -98.016769913 1190.526 1817.738 168.99793523 1190.526 1855.738 -88.798897726 1190.526 
2116.075 146.61120273 1190.526 2222.516 137.06633419 1190.526 1492.694 184.75510871 1190.526 
2119.498 -66.982945936 1190.526 2199.357 -59.648252558 1190.526 1941.625 160.51957192 1190.526 
2314.479 -48.529040959 1190.526 2436.346 115.56812147 1190.526 2388.573 120.63802358 1190.526 
1981.017 -78.923118633 1190.526 1972.24 158.24033475 1190.526 2076.584 149.95196288 1190.526 
[...]
POINT_DATA 1740
FIELD FieldData 1
Pressure 1 1740 double
3.1112954117 3.0281625624 3.0099394108 2.98713409 2.9775070602 2.9541123215 2.9691669202 2.9866370666 3.0180505703 
3.0308493391 3.0124740548 3.113586597 3.0370710819 3.0516301273 3.0690854433 3.0667977888 3.0843940183 3.0896195745 
3.1114396757 3.1167902086 3.1347797695 3.1436752218 3.1468842785 3.1548344446 3.1519612728 3.1479855567 3.1454884133 
3.1364805824 3.1264293661 3.1199564673 3.1093491457 3.1057854743 3.1014433534 3.0948660167 3.0851296548 3.0759025731 
3.0661651818 3.0580406604 3.048672915 3.0664364611 3.0784422222 3.0921539305 3.1044964082 3.1077069908 3.1194013348 
3.1254552131 3.133575464 3.148547318 3.1598219654 3.1768743634 3.1867422361 3.1929080608 3.1995741024 3.2061931827 
3.2012664862 3.1981816111 3.1631202939 3.1602131119 3.1640753888 3.0956084377 3.0855630628 3.0750910854 3.0638968665 
3.0536364155 3.0422925873 3.0351846519 3.0359482248 3.1832763817 3.2043694894 3.1424617965 3.203321251 3.1318605742 
3.1722901765 3.1584193002 3.1984728502 3.1173936258 3.1155362187 3.1999385218 3.112438145 3.0972734329 3.1383722751 
3.1223079939 3.2002963168 3.1752911398 3.1604242589 3.1574183023 3.1625856355 3.1090563904 3.0258510826 3.0279706045 
3.0001525169 3.0058896271 2.9848316329 2.9943336065 3.0063323849 3.0340930176 3.0524647849 3.0388543442 3.111022439 
3.0582801832 3.0712129083 3.0848511944 3.089105633 3.1037673122 3.115266011 3.1271155666 3.1344194182 3.1432660748 
3.1489449714 3.1530663235 3.1579078742 3.1547677864 3.1497308113 3.1435777744 3.1308998269 3.121318504 3.1162785869 
3.1068030002 3.102973222 3.0983464523 3.0910527636 3.081423771 3.0720559505 3.0624594064 3.0550582045 3.0398892354 
3.0847450857 3.1049338349 3.1166502493 3.1263015327 3.134125711 3.1401604459 3.1447215506 3.1536639478 3.1653251104 
3.1744760046 3.1825232296 3.1907441373 3.1958867916 3.2036963299 3.2065728722 3.1959345458 3.1858738999 3.156013335 
3.1583487708 3.1554835142 3.0797680752 3.0745825588 3.0668021621 3.0560364943 3.0461930406 3.036238356 3.0316564042 
3.0314669907 3.1687875095 3.2061012199 3.1391345008 3.199239438 3.1257417748 3.1620304879 3.1538749706 3.2002466155 
3.1139482195 3.1126910967 3.1945294492 3.1099163625 3.0774397015 3.1119822392 3.1185838301 3.1930147863 3.1637458756 
3.1559613945 3.1555674478 3.1622360506 3.1078740433 3.0216602493 3.0295017595 3.0017153704 3.0028325928 2.9838580422 
2.9967737407 3.0096762279 3.0383212942 3.0597179251 3.0480881768 3.1104550132 3.0625103353 3.0817861443 3.0990513692 
3.107099732 3.1182629024 3.1283427284 3.1398490341 3.1476167191 3.1547481108 3.1581631825 3.159120148 3.1614296859 
3.1564866692 3.1487693902 3.1400977234 3.1257355128 3.1182328255 3.1146825916 3.1054569009 3.1012875127 3.0957395254 
3.0890116519 3.0785507087 3.0689681557 3.0598763384 3.052840661 3.0414025737 3.0907578421 3.1130996172 3.1308213445 
3.1400830761 3.1537960043 3.1601539582 3.168958286 3.173551495 3.181415933 3.1904582062 3.1947314346 3.2010918912 
3.2036119374 3.2113882484 3.2116871845 3.1971028135 3.1816827275 3.1523089531 3.1563093634 3.12938147 3.0733170969 
3.0671448306 3.0602013646 3.0500780264 3.0401781749 3.0308981632 3.0263706294 3.0255737234 3.1624103786 3.2128065752 
3.134078429 3.2019011525 3.1205560487 3.157442703 3.1522533453 3.2073420297 3.1122382322 3.1118605171 3.1946622221 
3.1094275478 3.0703492562 3.0801195394 3.1166007223 3.1915032394 3.1581059466 3.1528506008 3.1536322624 3.1594063075 
3.1075738621 3.0196206426 3.0300239719 3.0017705464 3.0032494041 2.9826469796 2.9925922855 3.006213081 3.0385418344 
3.0600897427 3.0479468527 3.110271192 3.0682001605 3.0859543731 3.1042580372 3.114302484 3.1254200765 3.1347781696 
3.14768874 3.1558653192 3.1617354221 3.1636255078 3.1654393153 3.1648634222 3.1571393456 3.1465717711 3.1350759538 
3.1220099553 3.116396048 3.1141494364 3.1051766581 3.1003913881 3.0956070044 3.0888493243 3.0780838937 3.0680833282 
3.0592433105 3.0522826313 3.0416363864 3.094168377 3.1176693826 3.1334365702 3.1448923688 3.1527267647 3.1635285896 
3.1764905803 3.1843494079 3.1920648399 3.2020625815 3.2069453604 3.212578977 3.213218453 3.2197947991 3.2193035154 
3.201178157 3.1841658059 3.1516087135 3.1553036454 3.0909509348 3.0706879461 3.0638001875 3.0560862395 3.0458071052 
3.035926272 3.0267027602 3.0218987841 3.0207076621 3.1628282762 3.2214779737 3.1288240171 3.206510368 3.1172795413 
3.1558318832 3.151407815 3.2163588144 3.1124269713 3.1118002236 3.1980990276 3.1087484281 3.0701412722 3.0705428445 
3.115494778 3.1940648621 3.15735339 3.1522907206 3.1524104199 3.1521565752 3.1072378428 3.0184734141 3.0312920992 
3.0014597173 3.0060055287 2.9855515293 2.9938350236 3.0068039452 3.040095419 3.0608459959 3.0483705291 3.1100085611 
3.0698484293 3.0878009169 3.1041738539 3.1153821098 3.1271554629 3.1384019635 3.1497820374 3.1593999623 3.1659639481 
3.1674798979 3.1682544593 3.1661983323 3.1560948669 3.1427112831 3.1294027598 3.1195239993 3.1153923192 3.1144351408 
3.1047444929 3.1001600221 3.0957631798 3.0890223163 3.0786090696 3.0685615627 3.0598521875 3.0526924108 3.0426314091 
3.0954847004 3.1190323541 3.1342129583 3.1463374694 3.1556413019 3.1665641062 3.1777492017 3.1861118171 3.1961006017 
3.2076779819 3.2160657962 3.2213995874 3.2223146178 3.2275460841 3.227801297 3.2043617491 3.1859717887 3.1510563662 
3.1529086343 3.0688678396 3.0685237218 3.0630613879 3.0541746218 3.043473895 3.0332364517 3.0237770448 3.0189136357 
3.0171523388 3.1631098899 3.2296052664 3.1237071466 3.2126160213 3.1157938281 3.1547825631 3.1508752788 3.2247754043 
3.1131482907 3.1115586607 3.1998721664 3.1083024314 3.0716855042 3.0688107822 3.114717574 3.1958422381 3.1560275442 
3.1524091696 3.151196579 3.1248089353 3.1065860988 3.0183470226 3.0318068096 3.0019880763 3.0071317923 2.9861199322 
2.9947259439 3.0079921408 3.0408774656 3.0623437599 3.0486071909 3.1097743824 3.070226977 3.0889636421 3.1044124684 
3.1163373137 3.1281412209 3.1402813767 3.1518554378 3.1617122294 3.1693674319 3.1707717252 3.1706014804 3.1664534131 
3.1532861835 3.1379429704 3.1242037257 3.1183340316 3.1160479995 3.1147042972 3.1042443382 3.0999748676 3.0960128547 
3.0893826009 3.0791381282 3.0690911639 3.060486575 3.0532437336 3.0434709793 3.0968594077 3.1206327291 3.1357720531 
3.1480114072 3.157049043 3.1685797345 3.1800089201 3.1892675044 3.200522796 3.2118414793 3.222854922 3.2284421385 
3.2306805916 3.2353866599 3.2376585321 3.2104033528 3.1884906485 3.148532276 3.1440121395 3.0629976669 3.068043826 
3.0617412457 3.0528688208 3.042520579 3.0323327401 3.0224787772 3.0176165958 3.0154099614 3.1627600275 3.2378711971 
3.1198820004 3.2213914825 3.1151204021 3.1523521314 3.1489043292 3.2329843954 3.1133286911 3.1111819038 3.2036633457 
3.1079247257 3.0716292367 3.0703156183 3.1150527278 3.1990500157 3.1538119876 3.1503203001 3.1489490415 3.079113599 
3.1062883405 3.0186547499 3.0317569943 3.0019454672 3.0069328739 2.9860672305 2.9944236816 3.0081542733 3.0413193032 
3.0629627357 3.0482077979 3.1096939352 3.0701151894 3.0889775425 3.1043438393 3.1167774978 3.1285920778 3.1412575181 
3.1533623127 3.1632472633 3.1718027753 3.1730577988 3.1726564905 3.1660083273 3.1498987932 3.1335051174 3.120086397 
3.1181536823 3.1168338097 3.1148255406 3.104180837 3.0999404161 3.0961643549 3.0898342124 3.0796555389 3.0696791019 
3.0610502423 3.0538531388 3.0437717271 3.097798427 3.1216973312 3.1371725404 3.1496337692 3.1589820562 3.1704875756 
3.1819795337 3.1914836469 3.203655906 3.2154702976 3.2274371997 3.2348985797 3.2380082311 3.2422777912 3.2474833102 
3.2206146936 3.1936801291 3.1446186403 3.1155941735 3.0594906453 3.064440387 3.0583597248 3.0510112315 3.0415113197 
3.0319241683 3.0219030375 3.0173558148 3.0146826106 3.1634197399 3.2461365328 3.1174683932 3.2337111891 3.1159826432 
3.1486453209 3.1453695717 3.2405407541 3.1132614642 3.1109076569 3.2112585828 3.1077105928 3.0693705092 3.0670370024 
3.1160207082 3.205396696 3.1514765938 3.1464304941 3.1460704613 3.0515916726 3.106159809 3.0186508057 3.0320872587 
3.0021588143 3.007788274 2.986908257 2.9947568783 3.0084429587 3.0420878018 3.0637322755 3.0480231471 3.1096675719 
3.0698698309 3.0888907304 3.1042126663 3.116899686 3.1287725078 3.1417422353 3.1541126817 3.1651218589 3.1727407702 
3.1741516122 3.1735918204 3.1647474828 3.1466125262 3.129494526 3.1173237393 3.1172658892 3.1175831713 3.1156949352 
3.1041598435 3.1000925207 3.0963110379 3.0901949001 3.0800565167 3.0701202792 3.0614541561 3.0543301436 3.0437697531 
3.0988923787 3.1229764384 3.1386826164 3.1514135819 3.1608795606 3.1724130883 3.1840930608 3.1939029652 3.2065947402 
3.218883903 3.230880596 3.2398605403 3.2443194674 3.2491585522 3.2567351408 3.2348383623 3.2042480925 3.1391186431 
3.0754202241 3.0551573674 3.060411519 3.0544524897 3.0490372839 3.0399415547 3.0308501941 3.0209558617 3.0169063381 
3.0139901381 3.1669276855 3.2530236451 3.1159612732 3.2509616959 3.1177631044 3.1437262134 3.140886171 3.2467985528 
3.1133526341 3.1106904221 3.2240631914 3.1076725058 3.0659332572 3.0588217871 3.1167641608 3.2172158687 3.1497306906 
3.1411865195 3.1420896966 3.0512766789 3.106271459 3.0179907202 3.0325830914 3.0023830295 3.0085612014 2.9877715933 
2.9954702182 3.0091082367 3.0429188921 3.0647913265 3.0475572899 3.1097930009 3.069431241 3.0885710937 3.1041872645 
3.1170377042 3.1287938487 3.142085292 3.1544116191 3.1660599154 3.1737998922 3.1753062868 3.1741688111 3.1632756548 
3.1439531312 3.1271900068 3.1161204145 3.1182963588 3.1187999227 3.1166898108 3.1043112824 3.100349218 3.0965457642 
3.0904858547 3.0803112733 3.0703463344 3.0616075982 3.0545477153 3.0435264132 3.1002456079 3.1244956646 3.1403316853 
3.1533125526 3.1630855857 3.1746343872 3.1865089479 3.1965424726 3.2096869922 3.2223716071 3.2343223459 3.2441352511 
3.2496133402 3.254290501 3.2608096217 3.2539865441 3.224689747 3.1323842234 3.0481062328 3.0512585544 3.0564234353 
3.0520495558 3.0465928571 3.0375777848 3.0287896965 3.0190491136 3.0155268312 3.0125051402 3.1766829971 3.2576190673 
3.1158033728 3.266660993 3.1188321621 3.13852239 3.1359171418 3.2521300412 3.1135796068 3.11070247 3.2459576204 
3.1078534341 3.0577151912 3.0551858731 3.1175080549 3.238742472 3.1499534529 3.1349835199 3.1338338862 3.0513616362 
3.1066258299 3.0166893364 3.0329580567 3.0026078693 3.0093672501 2.9884470022 2.9960808557 3.009704472 3.0435794739 
3.0657067978 3.0470537652 3.1100716549 3.0688503225 3.0879021777 3.1038422293 3.1167205734 3.1284651761 3.1418979668 
3.1545387556 3.1665677626 3.1743927537 3.176087783 3.1746946087 3.1619678577 3.1412425267 3.125891063 3.115994402 
3.11884113 3.1193383268 3.1172323718 3.1046082001 3.1007581027 3.0968987167 3.0908491039 3.0805675368 3.0705194683 
3.0616716394 3.0546423811 3.0434337994 3.1015537986 3.1260094168 3.1418913684 3.1551147137 3.16512095 3.1768268112 
3.1890464246 3.1993171842 3.2129240385 3.2258375835 3.237730482 3.2481430136 3.2539341972 3.2598782764 3.2668371679 
3.2744690073 3.2591545274 3.1242279478 3.0418141503 3.0482806523 3.0516169386 3.0481375454 3.0426823734 3.0340754387 
3.0256411241 3.0161321141 3.013036489 3.0100155131 3.1998372744 3.2604945846 3.1170558374 3.274498929 3.1190419517 
3.1334582814 3.1299717936 3.2568714445 3.1138353279 3.1107905022 3.2745979433 3.1082130446 3.0535075175 3.0539023527 
3.1178443116 3.2697928289 3.1588643055 3.127315534 3.1135632542 3.0465571835 3.1070889426 3.0150671448 3.0331982792 
3.0027440803 3.0100815891 2.9889581052 2.9965828752 3.0101583964 3.0441537223 3.0664246686 3.0462505501 3.1104782411 
3.0679893917 3.0870441846 3.1028440745 3.1155954145 3.1276566289 3.1411809269 3.1543437576 3.1665110864 3.1745330572 
3.176413616 3.1748666993 3.1607216808 3.1394736374 3.125394937 3.116338538 3.1185702288 3.1200191808 3.1173633396 
3.1050380348 3.1012593216 3.0974283349 3.0913066251 3.0809376601 3.0707399608 3.0617766367 3.0547232001 3.0435389044 
3.1027500183 3.1273883512 3.143325957 3.1568383695 3.1668593622 3.1788592437 3.1913999421 3.2019631512 3.2160651804 
3.2290950998 3.2414353348 3.2514025226 3.2573692506 3.2641468392 3.2679762206 3.2806467277 3.3048613714 3.1161412538 
3.0481996666 3.0411017571 3.0451859595 3.0429978208 3.0377859927 3.029797351 3.0217634356 3.012601078 3.0098481772 
3.0067741894 3.236908018 3.2669874872 3.1163592712 3.2769540348 3.1197636644 3.131605234 3.1228137137 3.2608939048 
3.114058039 3.1109455347 3.294145781 3.1086741405 3.0481606216 3.0484187989 3.1177659341 3.3028482352 3.1858831796 
3.1186570069 3.0761338451 3.0565588136 3.1076048567 3.0133185916 3.0333847921 3.0028344128 3.0103217894 2.9894259212 
2.9971510552 3.0106693373 3.0446799106 3.0671116296 3.0452711946 3.1110080968 3.0669743632 3.0861476426 3.1014737858 
3.1140532984 3.1264989926 3.1401437803 3.153850766 3.1661943589 3.1742779062 3.1764239147 3.1746466791 3.1597757182 
3.1384789656 3.1253979639 3.1168081851 3.1190892927 3.1204785431 3.1175551707 3.1054204004 3.1016173415 3.0978588353 
3.0916277805 3.0812689863 3.0709496884 3.0618907128 3.0547171816 3.0437980361 3.1039733775 3.1287558476 3.1447256046 
3.1586095155 3.1685326554 3.180858479 3.1936238012 3.2044444537 3.2190759107 3.2322628916 3.2445192845 3.25485531 
3.2610052451 3.2691526622 3.2720613164 3.2819844921 3.3369056165 3.1108271279 3.0461265973 3.0383876209 3.0402502953 
3.0380584683 3.0328388163 3.0253363115 3.017667023 3.0089394241 3.006482282 3.0031882475 3.2953368227 3.2685804747 
3.116509291 3.2764980496 3.1203537908 3.1441840776 3.1141285306 3.264698533 3.114369599 3.1111945294 3.3046855651 
3.1091716707 3.043056163 3.0411460971 3.1179430957 3.3184789814 3.2431223749 3.1091927474 3.0452127215 3.0548634602 
3.1080877649 3.0113832553 3.0333749682 3.0029275328 3.0103523746 2.9898121992 2.9978123222 3.0113393129 3.0452720794 
3.0679085205 3.0442737424 3.1115585248 3.0660438878 3.0852824522 3.1002987727 3.1127876396 3.1254838465 3.1392102242 
3.1534073291 3.1658209196 3.1740229253 3.1765565804 3.1745170622 3.1595639326 3.1385963933 3.1258670582 3.1168929637 
3.1193296635 3.1212013228 3.1182214865 3.1056207216 3.1018064174 3.0980325162 3.0916855923 3.0813611627 3.0709515418 
3.0618575317 3.0544742823 3.0440779027 3.1052836153 3.1302344593 3.1462142937 3.1604974601 3.1702944183 3.1829248621 
3.1958819585 3.2068287813 3.2219574171 3.2352144666 3.2476955696 3.2574676567 3.2641133366 3.2721199149 3.2738578359 
3.2787558189 3.3271620366 3.1157831909 3.0408706849 3.033332121 3.0363076263 3.0338994512 3.0284660901 3.0211610263 
3.0136518042 3.0051946443 3.0030758626 2.9993082125 3.3519214321 3.2733144731 3.1165471243 3.274012249 3.1207433435 
3.1890597909 3.1014373457 3.2682229631 3.114887265 3.1115359723 3.2921398738 3.1096822864 3.0386030385 3.0353701987 
3.1185138465 3.3183887746 3.3238230047 3.1006095239 3.0141843186 3.0457215753 3.1084870522 3.0092576531 3.033439254 
3.0031843308 3.010506783 2.9901427881 2.998614414 3.0120811546 3.0458837245 3.0687643944 3.0434193979 3.1120071601 
3.065517192 3.0846118969 3.0996099658 3.1120767899 3.1248775978 3.1384911112 3.1532242657 3.1656602531 3.1739210147 
3.1768695557 3.1747809033 3.1601345976 3.1384700136 3.1261042936 3.1167028297 3.1189089679 3.1220898264 3.1190446032 
3.1058098982 3.10193271 3.0980605307 3.091548592 3.0811880031 3.0706637617 3.0615944042 3.0539669532 3.0441843569 
3.1066274615 3.131799627 3.1477376984 3.1623869108 3.1720907048 3.1849236745 3.1981286705 3.2090903173 3.2245379426 
3.2378908172 3.2502954829 3.2602303935 3.2666487139 3.2751338706 3.278478453 3.2770476347 3.3311816044 3.1331106914 
3.0468598699 3.0240158054 3.0306166598 3.02937176 3.0237204708 3.0167839964 3.0094855853 3.0011127881 2.9996514094 
2.9949318279 3.38127112 3.2767627567 3.1159773471 3.2742311264 3.121415897 3.2912988241 3.0796199458 3.2709933447 
3.1153657056 3.1118994812 3.2831651664 3.1101002934 3.0296183208 3.0281831271 3.1191940314 3.3076498689 3.4152419825 
3.0878446727 2.9888799845 3.044818149 3.1088330544 3.007297827 3.0336030253 3.0036999002 3.0110255689 2.9905085476 
2.9995374922 3.0127772478 3.0465175692 3.0695671633 3.0429873826 3.1123544556 3.065247927 3.0841346702 3.0994393205 
3.1118703198 3.1246149723 3.1379415595 3.1532688412 3.1653602059 3.1739849724 3.1773141127 3.1754829442 3.1619822659 
3.1391887702 3.1263788916 3.1160830464 3.1192946542 3.122707381 3.1196513313 3.1061196624 3.1020874359 3.0981134406 
3.0912770325 3.0808317671 3.0700901663 3.0610783306 3.0532788617 3.0440603562 3.1076401802 3.133164968 3.1489682027 
3.1637985227 3.1734872255 3.1865809463 3.2000413823 3.211028106 3.2262931827 3.2399365038 3.2521523471 3.2622596676 
3.2688689547 3.2779156306 3.2816678226 3.2799262982 3.3431405563 3.1439151176 3.0301350537 3.0166001153 3.024532016 
3.0236467377 3.0184531626 3.0122933352 3.0054017085 2.9973792419 2.9966408663 2.9905325612 3.4019656116 3.2805636185 
3.1162103659 3.2796944983 3.1217884767 3.4549130638 3.0381706801 3.2729880585 3.1156553445 3.1122569401 3.2842753636 
3.1104416617 3.0235548599 3.0234760887 3.1201214477 3.3116426308 3.5306928441 3.0658838947 3.0002876187 3.0158093825 
3.1090858336 3.0060547415 3.032489465 3.0033477887 3.0113767619 2.9900069704 3.000044651 3.0131582119 3.0461322872 
3.0697728545 3.042139267 3.1126804282 3.0642917631 3.0829049926 3.0994300394 3.1118627471 3.1245874374 3.1371199109 
3.1530919404 3.1643880043 3.1742856728 3.1781573477 3.1768945811 3.164855217 3.140887985 3.1267871104 3.1157719169 
3.1194883019 3.1231836891 3.1198992008 3.1063729589 3.102214912 3.0980998324 3.0907462885 3.0802340418 3.0693055421 
3.0603535663 3.0524410523 3.0435334127 3.1080134719 3.1338102227 3.1496711723 3.1646462748 3.1743406082 3.1877266278 
3.201270281 3.2122609061 3.2273607303 3.2415954386 3.2541102328 3.2640712355 3.2711948753 3.2814642518 3.2837163669 
3.2820707336 3.3454525583 3.1136629629 3.0215495911 3.0169014573 3.0204485524 3.0197393375 3.0158910048 3.009821577 
3.0028651463 2.995077537 2.9945409123 2.9876484435 3.4030025451 3.2837311002 3.1164084195 3.2819033198 3.1217608906 
3.5617393954 2.9966970113 3.2751366647 3.1159283563 3.1127390684 3.2906134186 3.1109119457 3.0204257192 3.0239528025 
3.1207554236 3.3214140105 3.5660970434 3.0404647379 3.0193905459 3.0187255167 3.1088389023 3.0064053469 3.0307368786 
3.001552152 3.0078501906 2.9878071254 2.9990820279 3.0126877764 3.0469470969 3.0699717009 3.0407343296 3.1126002486 
3.0639384143 3.0824402134 3.0996708244 3.111335754 3.1244722528 3.1360137505 3.1543225102 3.1657526183 3.1765722155 
3.1823688749 3.1803795296 3.1688795839 3.1422626067 3.1270151267 3.1163315242 3.1199584331 3.1237412856 3.1194427706 
3.1066664817 3.1020879376 3.0976580862 3.0899206889 3.0793136456 3.0681887 3.0592249339 3.0512803311 3.0415965657 
3.1086490778 3.1339725536 3.1507985036 3.16604573 3.1756705743 3.1888108604 3.202397251 3.2139390785 3.2295499153 
3.2444894271 3.2572970605 3.2691816347 3.2748662477 3.2857127992 3.2849503773 3.2881382672 3.3612072494 3.0724520929 
3.0018204982 3.0250179086 3.024847907 3.024449395 3.0192904942 3.0115966765 3.0040632029 2.9965633973 2.9955185329 
2.9883082725 3.4105261576 3.2862706303 3.1170871043 3.2874319559 3.12094196 3.3800871115 2.990047612 3.2787278294 
3.1158186643 3.1126825425 3.2937785653 3.1108766659 3.0226561856 3.0253128926 3.1205549724 3.3168122381 3.3765538048 
3.0217714907 3.0222619779 3.02982926 3.1085664569 3.0106009669 3.032555751 3.0047858679 3.0096542931 2.9897663416 
3.0028738008 3.0164382289 3.053647648 3.0729136602 3.0448473006 3.1148794036 3.0628258569 3.0841286993 3.1010704429 
3.1140245897 3.1278378871 3.1389890161 3.1599852127 3.1772241168 3.1845557313 3.1895556933 3.1852611009 3.168778035 
3.1400602566 3.1255967451 3.1186310369 3.1211819152 3.1229280001 3.1182106681 3.105651464 3.1017059361 3.0965753801 
3.087039791 3.0775416124 3.0653518449 3.0569036001 3.0485723918 3.03856148 3.1081141348 3.1354148597 3.1556277984 
3.1707502476 3.179447056 3.1966841412 3.2071759765 3.2169680945 3.2355858101 3.249241456 3.2643915895 3.2721748372 