# vtk DataFile Version 4.2
vtk output
ASCII
DATASET POLYDATA
POINTS 15680 float
2381.37 -2301.09 5800 2406.91 -2313.01 5800 2435.91 -2312.19 5800 
2464.91 -2311.36 5800 2493.91 -2310.54 5800 2522.91 -2309.72 5800 
2551.91 -2308.89 5800 2580.91 -2308.07 5800 2609.91 -2307.24 5800 
2638.91 -2308.23 5800 2667.91 -2311.36 5800 2683.18 -2301.08 5800 
2359.95 -2288.09 5800 2377.91 -2299.86 5800 2696.92 -2294.3 5800 
2703.84 -2288.08 5800 2340.12 -2275.09 5800 2348.91 -2280.85 5800 
2718.32 -2275.08 5800 2320.29 -2262.09 5800 2725.92 -2268.25 5800 
2732.79 -2262.08 5800 2300.46 -2249.09 5800 2319.91 -2261.84 5800 
2747.27 -2249.08 5800 2280.62 -2236.09 5800 2290.91 -2242.83 5800 
2754.92 -2242.21 5800 2761.75 -2236.08 5800 2260.79 -2223.09 5800 
2261.91 -2223.83 5800 2776.22 -2223.08 5800 2240.96 -2210.09 5800 
2783.93 -2216.16 5800 2790.7 -2210.07 5800 2221.12 -2197.09 5800 
2232.91 -2204.82 5800 2805.18 -2197.07 5800 2213.35 -2184.09 5800 
2812.93 -2190.11 5800 2819.66 -2184.07 5800 2211.09 -2171.09 5800 
2834.13 -2171.07 5800 2209.91 -2158.09 5800 2841.93 -2164.07 5800 
2848.61 -2158.07 5800 2209.18 -2145.09 5800 2863.09 -2145.07 5800 
2209.66 -2132.09 5800 2870.93 -2138.02 5800 2877.56 -2132.06 5800 
2210.09 -2119.09 5800 2892.04 -2119.06 5800 2210.53 -2106.09 5800 
2899.94 -2111.97 5800 2906.52 -2106.06 5800 2210.97 -2093.08 5800 
2921 -2093.06 5800 2211.4 -2080.08 5800 2928.94 -2085.93 5800 
2935.47 -2080.06 5800 2211.84 -2067.08 5800 2949.95 -2067.06 5800 
2211.68 -2054.08 5800 2955.82 -2054.06 5800 2208.93 -2041.08 5800 
2957.07 -2041.06 5800 2206.18 -2028.08 5800 2957.79 -2028.05 5800 
2203.43 -2015.08 5800 2203.92 -2017.41 5800 2957.95 -2025.04 5800 
2958.45 -2015.05 5800 2200.68 -2002.08 5800 2959.1 -2002.05 5800 
2197.93 -1989.08 5800 2959.76 -1989.05 5800 2195.18 -1976.08 5800 
2960.41 -1976.05 5800 2192.43 -1963.08 5800 2961.06 -1963.05 5800 
2189.68 -1950.07 5800 2961.72 -1950.05 5800 2186.93 -1937.07 5800 
2962.37 -1937.05 5800 2184.18 -1924.07 5800 2963.03 -1924.05 5800 
2181.43 -1911.07 5800 2963.68 -1911.04 5800 2178.68 -1898.07 5800 
2964.33 -1898.04 5800 2175.93 -1885.07 5800 2964.97 -1885.04 5800 
2173.18 -1872.07 5800 2174.93 -1880.35 5800 2965.61 -1872.04 5800 
2170.43 -1859.07 5800 2966.25 -1859.04 5800 2167.68 -1846.07 5800 
2966.89 -1846.04 5800 2164.93 -1833.07 5800 2967.52 -1833.04 5800 
2162.18 -1820.07 5800 2968.15 -1820.04 5800 2159.43 -1807.06 5800 
2968.79 -1807.04 5800 2156.68 -1794.06 5800 2969.41 -1794.04 5800 
3886 -1798.47 5800 3874.69 -1794 5800 3899.2 -1794 5800 
579.882 -1789.32 5800 569.911 -1781.12 5800 608.884 -1781.24 5800 
609.252 -1781.12 5800 2153.93 -1781.06 5800 2971.87 -1781.03 5800 
3857 -1789.86 5800 3851.95 -1781 5800 3915 -1788.67 5800 
3937.68 -1781 5800 557.837 -1768.12 5800 637.886 -1771.15 5800 
646.62 -1768.11 5800 2151.18 -1768.06 5800 2978.86 -1768.03 5800 
3844.54 -1768 5800 3944 -1778.86 5800 3973 -1769.08 5800 
3976.43 -1768 5800 550.884 -1760.63 5800 545.764 -1755.12 5800 
666.888 -1761.06 5800 683.988 -1755.11 5800 2148.43 -1755.06 5800 
2985.99 -1755.03 5800 3837.77 -1755 5800 4002 -1759.9 5800 
4017.65 -1755 5800 533.69 -1742.12 5800 695.889 -1750.97 5800 
721.357 -1742.11 5800 2145.68 -1742.06 5800 2145.94 -1743.29 5800 
2986.97 -1753.87 5800 2997.07 -1742.03 5800 3830.08 -1742 5800 
4031 -1750.82 5800 4059.19 -1741.99 5800 521.885 -1729.4 5800 
521.467 -1729.11 5800 724.891 -1740.88 5800 753.893 -1730.79 5800 
758.725 -1729.11 5800 2142.93 -1729.06 5800 3007.32 -1729.03 5800 
3828 -1738.96 5800 3822.32 -1729 5800 4060.01 -1741.74 5800 
4089.01 -1733.77 5800 4107.13 -1728.99 5800 505.771 -1716.11 5800 
782.895 -1720.7 5800 796.093 -1716.1 5800 2140.09 -1716.06 5800 
3015.97 -1718.48 5800 3017.98 -1716.03 5800 3814.92 -1716 5800 
4118.01 -1726.12 5800 4147.01 -1718.48 5800 4156.46 -1715.99 5800 
494.479 -1703.11 5800 811.896 -1710.61 5800 833.461 -1703.1 5800 
2137.19 -1703.06 5800 3028.63 -1703.03 5800 3807.51 -1703 5800 
4176.01 -1710.83 5800 4205.01 -1703.19 5800 4205.78 -1702.99 5800 
492.886 -1701.04 5800 470.621 -1690.11 5800 840.898 -1700.51 5800 
869.9 -1690.42 5800 870.829 -1690.1 5800 2134.29 -1690.06 5800 
3039.29 -1690.03 5800 3800.11 -1690 5800 4234.02 -1695.54 5800 
4255.1 -1689.98 5800 463.886 -1686.63 5800 444.595 -1677.11 5800 
898.902 -1680.33 5800 908.197 -1677.1 5800 2131.39 -1677.06 5800 
3044.98 -1683.09 5800 3049.94 -1677.02 5800 3799 -1688.06 5800 
3792.77 -1677 5800 4263.02 -1687.9 5800 4292.02 -1680.25 5800 
4304.43 -1676.98 5800 434.886 -1672.33 5800 418.237 -1664.11 5800 
927.904 -1670.24 5800 945.565 -1664.1 5800 2128.49 -1664.05 5800 
3060.6 -1664.02 5800 3785.82 -1664 5800 4321.02 -1672.61 5800 
4350.02 -1664.96 5800 4353.74 -1663.98 5800 405.886 -1658.02 5800 
391.879 -1651.11 5800 956.905 -1660.15 5800 982.933 -1651.09 5800 
2125.58 -1651.05 5800 3071.25 -1651.02 5800 3779.29 -1651 5800 
4379.02 -1657.31 5800 4402.65 -1650.98 5800 376.887 -1643.72 5800 
365.52 -1638.11 5800 985.907 -1650.06 5800 1014.91 -1639.97 5800 
1020.23 -1638.09 5800 2122.68 -1638.05 5800 3073.98 -1647.69 5800 
3081.91 -1638.02 5800 3772.76 -1638 5800 4408.02 -1649.54 5800 
4423.54 -1637.97 5800 347.887 -1629.42 5800 339.162 -1625.11 5800 
1043.91 -1629.69 5800 1056.87 -1625.09 5800 2119.78 -1625.05 5800 
3092.56 -1625.02 5800 3770 -1632.51 5800 3766.23 -1625 5800 
4436.36 -1624.97 5800 318.887 -1615.11 5800 312.804 -1612.11 5800 
1072.91 -1619.4 5800 1093.51 -1612.09 5800 2116.88 -1612.05 5800 
2116.95 -1612.35 5800 3102.98 -1612.3 5800 3103.22 -1612.02 5800 
3759.7 -1611.99 5800 4437.03 -1624.24 5800 4448.19 -1611.97 5800 
289.887 -1600.81 5800 286.446 -1599.11 5800 1101.91 -1609.1 5800 
1130.14 -1599.08 5800 2113.98 -1599.05 5800 3113.87 -1599.02 5800 
3752.84 -1598.99 5800 4459.94 -1598.97 5800 260.887 -1586.51 5800 
260.087 -1586.11 5800 1130.92 -1598.81 5800 1159.92 -1588.51 5800 
1166.77 -1586.08 5800 2111.08 -1586.05 5800 3124.53 -1586.01 5800 
3745.86 -1585.99 5800 4466.03 -1592.22 5800 4471.67 -1585.97 5800 
233.729 -1573.11 5800 1188.92 -1578.22 5800 1203.4 -1573.08 5800 
2108.18 -1573.05 5800 3131.99 -1576.91 5800 3135.18 -1573.01 5800 
3741.01 -1577.16 5800 3738.71 -1572.99 5800 4483.41 -1572.97 5800 
231.887 -1572.2 5800 209.598 -1560.11 5800 1217.92 -1567.93 5800 
1240.03 -1560.08 5800 2105.68 -1560.05 5800 3145.84 -1560.01 5800 
3731.57 -1559.99 5800 4495.04 -1560.09 5800 4495.15 -1559.96 5800 
202.887 -1556.27 5800 187.215 -1547.11 5800 1246.92 -1557.63 5800 
1275.93 -1547.34 5800 1276.66 -1547.07 5800 2106.43 -1547.05 5800 
3156.49 -1547.01 5800 3724.42 -1546.99 5800 4506.89 -1546.96 5800 
173.888 -1539.32 5800 164.975 -1534.11 5800 1304.93 -1537.04 5800 
1313.3 -1534.07 5800 2106.88 -1534.05 5800 3160.99 -1541.52 5800 
3167.15 -1534.01 5800 3717.28 -1533.99 5800 4518.62 -1533.96 5800 
144.888 -1522.37 5800 142.736 -1521.11 5800 1333.93 -1526.75 5800 
1345.32 -1521.07 5800 2108.62 -1521.04 5800 3176.44 -1521.01 5800 
3712.01 -1524.41 5800 3710.13 -1520.99 5800 4524.04 -1527.96 5800 
4530.36 -1520.96 5800 120.497 -1508.11 5800 1362.93 -1510.62 5800 
1367.02 -1508.07 5800 2112.35 -1508.04 5800 3182.14 -1508.01 5800 
3702.99 -1507.99 5800 4542.1 -1507.96 5800 115.888 -1505.42 5800 
98.2573 -1495.11 5800 1387.8 -1495.07 5800 2113.96 -1495.04 5800 
3187.28 -1495.01 5800 3695.84 -1494.99 5800 4553.04 -1495.84 5800 
4553.84 -1494.96 5800 86.8885 -1488.47 5800 76.0179 -1482.11 5800 
1391.93 -1492.48 5800 1405.08 -1482.07 5800 2114.75 -1482.04 5800 
3190 -1488.14 5800 3192.42 -1482 5800 3688.69 -1481.99 5800 
4565.57 -1481.96 5800 57.8888 -1471.51 5800 53.7785 -1469.11 5800 
1420.94 -1472.91 5800 1424.48 -1469.06 5800 2115.53 -1469.04 5800 
3197.57 -1469 5800 3683.01 -1471.65 5800 3681.55 -1468.99 5800 
4577.31 -1468.96 5800 31.5392 -1456.11 5800 1435.38 -1456.06 5800 
2116.32 -1456.04 5800 3202.71 -1456 5800 3674.4 -1455.99 5800 
4582.05 -1463.71 5800 4589.05 -1455.95 5800 28.8891 -1454.56 5800 
9.29987 -1443.11 5800 1449.94 -1443.75 5800 1450.61 -1443.06 5800 
2115.55 -1443.04 5800 3207.74 -1443 5800 3667.26 -1442.98 5800 
4600.79 -1442.95 5800 -0.110577 -1437.61 5800 -12.9394 -1430.11 5800 
1463.21 -1430.06 5800 2113.33 -1430.04 5800 3209.75 -1430 5800 
3660.11 -1429.98 5800 4611.05 -1431.59 5800 4612.52 -1429.95 5800 
-29.1101 -1418.89 5800 -30.441 -1417.11 5800 1475.75 -1417.06 5800 
2111.53 -1417.04 5800 3211.27 -1417 5800 3654.02 -1418.9 5800 
3652.97 -1416.98 5800 4624.26 -1416.95 5800 -36.6793 -1404.11 5800 
1478.94 -1413.83 5800 1488.45 -1404.06 5800 2110.04 -1404.04 5800 
3212.47 -1404 5800 3645.82 -1403.98 5800 4636 -1403.95 5800 
-42.9177 -1391.11 5800 1501.13 -1391.06 5800 2108.79 -1391.03 5800 
3213.43 -1391 5800 3638.67 -1390.98 5800 4640.05 -1399.46 5800 
4647.74 -1390.95 5800 -49.156 -1378.11 5800 1507.95 -1384.08 5800 
1513.85 -1378.05 5800 2107.73 -1378.03 5800 3214.26 -1378 5800 
3631.53 -1377.98 5800 4659.47 -1377.95 5800 -55.3943 -1365.11 5800 
1526.59 -1365.05 5800 2106.81 -1365.03 5800 3214.6 -1364.99 5800 
3625.02 -1366.14 5800 3624.38 -1364.98 5800 4669.06 -1367.33 5800 
4671.21 -1364.94 5800 -58.1066 -1359.45 5800 -61.6327 -1352.11 5800 
1536.95 -1354.49 5800 1539.34 -1352.05 5800 2106 -1352.03 5800 
2544.17 -1352.02 5800 2551.98 -1358.51 5800 2577.35 -1352.02 5800 
3214.92 -1351.99 5800 3617.93 -1351.98 5800 4682.95 -1351.94 5800 
-67.871 -1339.11 5800 1552.08 -1339.05 5800 2105.3 -1339.03 5800 
2529.54 -1339.02 5800 2580.99 -1351.08 5800 2609.99 -1344.33 5800 
2636.19 -1339.01 5800 3215.25 -1338.99 5800 3613.77 -1338.98 5800 
4694.69 -1338.94 5800 -74.1093 -1326.1 5800 1564.82 -1326.05 5800 
2104.14 -1326.03 5800 2517.56 -1326.02 5800 2522.98 -1332.8 5800 
2638.99 -1338.44 5800 2667.99 -1332.56 5800 2696.99 -1326.67 5800 
2700.25 -1326.01 5800 3215.57 -1325.99 5800 3611.86 -1325.98 5800 
4698.06 -1335.21 5800 4706.58 -1325.94 5800 -80.3476 -1313.1 5800 
1565.95 -1324.9 5800 1577.57 -1313.05 5800 2102.85 -1313.03 5800 
2507.17 -1313.01 5800 2725.99 -1320.78 5800 2754.99 -1314.89 5800 
[...]
POINT_DATA 15680
SCALARS Pressure double
LOOKUP_TABLE default
3.094210889 3.094210889 3.094210889 3.094210889 3.094210889 3.094210889 3.094210889 3.094210889 3.094210889 
3.094210889 3.094210889 3.094210889 3.094210889 3.094210889 3.094210889 3.094210889 3.094210889 3.094210889 
3.094210889 3.094210889 3.094210889 3.094210889 3.094210889 3.094210889 3.094210889 3.094210889 3.094210889 
3.094210889 3.094210889 3.094210889 3.094210889 3.094210889 3.094210889 3.094210889 3.094210889 3.094210889 
3.094210889 3.094210889 3.094210889 3.094210889 3.094210889 3.094210889 3.094210889 3.094210889 3.094210889 
3.094210889 3.094210889 3.094210889 3.094210889 3.094210889 3.094210889 3.094210889 3.094210889 3.094210889 
3.094210889 3.094210889 3.094210889 3.094210889 3.094210889 3.094210889 3.094210889 3.094210889 3.094210889 
3.094210889 3.094210889 3.094210889 3.094210889 3.094210889 3.094210889 3.094210889 3.094210889 3.094210889 
3.094210889 3.094210889 3.094210889 3.094210889 3.094210889 3.094210889 3.094210889 3.094210889 3.094210889 
3.094210889 3.094210889 3.094210889 3.094210889 3.094210889 3.094210889 3.094210889 3.094210889 3.094210889 
3.094210889 3.094210889 3.094210889 3.094210889 3.094210889 3.094210889 3.094210889 3.094210889 3.094210889 
3.094210889 3.094210889 3.094210889 3.094210889 3.094210889 3.094210889 3.094210889 3.094210889 3.094210889 
3.0883172208 3.0883172208 3.0883172208 3.0883172208 3.0883172208 3.0883172208 3.0883172208 3.094210889 3.094210889 
3.0883172208 3.0883172208 3.0883172208 3.0883172208 3.0883172208 3.0883172208 3.0883172208 3.094210889 3.094210889 
3.0883172208 3.0883172208 3.0883172208 3.0883172208 3.0883172208 3.0883172208 3.0883172208 3.0883172208 3.094210889 
3.094210889 3.0883172208 3.0883172208 3.0883172208 3.0883172208 3.0883172208 3.0883172208 3.094210889 3.094210889 
3.094210889 3.094210889 3.0883172208 3.0883172208 3.0883172208 3.0883172208 3.0883172208 3.0883172208 3.0883172208 
3.0883172208 3.094210889 3.094210889 3.0883172208 3.0883172208 3.0883172208 3.0883172208 3.0883172208 3.0883172208 
3.0883172208 3.0883172208 3.094210889 3.094210889 3.094210889 3.0883172208 3.0883172208 3.0883172208 3.0883172208 
3.0883172208 3.0883172208 3.0883172208 3.094210889 3.094210889 3.0883172208 3.0883172208 3.0883172208 3.0883172208 
3.0883172208 3.0883172208 3.0883172208 3.0883172208 3.0883172208 3.094210889 3.094210889 3.0883172208 3.0883172208 
3.0883172208 3.0883172208 3.0883172208 3.0883172208 3.0883172208 3.094210889 3.094210889 3.094210889 3.0883172208 
3.0883172208 3.0883172208 3.0883172208 3.0883172208 3.0883172208 3.0883172208 3.0883172208 3.0883172208 3.094210889 
3.094210889 3.0883172208 3.0883172208 3.0883172208 3.0883172208 3.0883172208 3.0883172208 3.0883172208 3.0883172208 
3.094210889 3.094210889 3.0883172208 3.0883172208 3.0883172208 3.0883172208 3.0883172208 3.0883172208 3.0883172208 
3.0883172208 3.094210889 3.094210889 3.094210889 3.0883172208 3.0883172208 3.0883172208 3.0883172208 3.0883172208 
3.0883172208 3.0883172208 3.094210889 3.094210889 3.0883172208 3.0883172208 3.0883172208 3.0883172208 3.0883172208 
3.0883172208 3.0883172208 3.094210889 3.094210889 3.094210889 3.094210889 3.0883172208 3.0883172208 3.0883172208 
3.0883172208 3.0883172208 3.0883172208 3.0883172208 3.094210889 3.094210889 3.0883172208 3.0883172208 3.0883172208 
3.0883172208 3.0883172208 3.0883172208 3.0883172208 3.094210889 3.094210889 3.0883172208 3.0883172208 3.0883172208 
3.0883172208 3.0883172208 3.0883172208 3.094210889 3.094210889 3.094210889 3.0883172208 3.0883172208 3.0883172208 
3.0883172208 3.0883172208 3.0883172208 3.0883172208 3.094210889 3.094210889 3.0883172208 3.0883172208 3.0883172208 
3.0883172208 3.0883172208 3.0883172208 3.0883172208 3.0883172208 3.094210889 3.094210889 3.0883172208 3.0883172208 
3.0883172208 3.0883172208 3.0883172208 3.0883172208 3.094210889 3.094210889 3.094210889 3.0883172208 3.0883172208 
3.0883172208 3.0883172208 3.0883172208 3.0883172208 3.094210889 3.094210889 3.0883172208 3.0883172208 3.0883172208 
3.0883172208 3.0883172208 3.0883172208 3.0883172208 3.094210889 3.094210889 3.0883172208 3.0883172208 3.0883172208 
3.0883172208 3.0883172208 3.094210889 3.094210889 3.0883172208 3.0883172208 3.0883172208 3.0883172208 3.0883172208 
3.0883172208 3.0883172208 3.094210889 3.094210889 3.094210889 3.0883172208 3.0883172208 3.0883172208 3.0883172208 
3.0883172208 3.0883172208 3.094210889 3.094210889 3.0883172208 3.0883172208 3.0883172208 3.0883172208 3.0883172208 
3.094210889 3.094210889 3.0883172208 3.0883172208 3.0883172208 3.0883172208 3.0883172208 3.0883172208 3.0883172208 
3.094210889 3.094210889 3.0883172208 3.0883172208 3.0883172208 3.0883172208 3.0883172208 3.094210889 3.094210889 
3.0883172208 3.0883172208 3.0883172208 3.0883172208 3.0883172208 3.0883172208 3.094210889 3.094210889 3.0883172208 
3.0883172208 3.0883172208 3.0883172208 3.0883172208 3.0883172208 3.094210889 3.094210889 3.0883172208 3.0883172208 
3.0883172208 3.0883172208 3.094210889 3.094210889 3.0883172208 3.0883172208 3.0883172208 3.0883172208 3.0883172208 
3.0883172208 3.094210889 3.094210889 3.0883172208 3.0883172208 3.0883172208 3.0883172208 3.094210889 3.094210889 
3.0883172208 3.0883172208 3.0883172208 3.0883172208 3.0883172208 3.0883172208 3.0883172208 3.0883172208 3.094210889 
3.1001045572 3.1001045572 3.1001045572 3.094210889 3.0883172208 3.0883172208 3.0883172208 3.0883172208 3.094210889 
3.1001045572 3.1001045572 3.1001045572 3.1001045572 3.094210889 3.0883172208 3.0883172208 3.0883172208 3.0883172208 
3.094210889 3.1001045572 3.1001045572 3.1001045572 3.1001045572 3.1001045572 3.1001045572 3.094210889 3.0883172208 
3.0883172208 3.0883172208 3.0883172208 3.0883172208 3.0883172208 3.094210889 3.1001045572 3.1001045572 3.1001045572 
3.1001045572 3.094210889 3.0883172208 3.0883172208 3.0883172208 3.0883172208 3.094210889 3.1001045572 3.1001045572 
3.1001045572 3.1001045572 3.094210889 3.0883172208 3.0883172208 3.0883172208 3.0883172208 3.0883172208 3.0883172208 
3.0883172208 3.094210889 3.1001045572 3.1001045572 3.1001045572 3.1001045572 3.094210889 3.0883172208 3.0883172208 
3.0883172208 3.0883172208 3.094210889 3.1001045572 3.1001045572 3.094210889 3.0883172208 3.0883172208 3.0883172208 
3.0883172208 3.0883172208 3.094210889 3.1001045572 3.1001045572 3.094210889 3.0883172208 3.0883172208 3.0883172208 
3.0883172208 3.0883172208 3.094210889 3.1001045572 3.1001045572 3.1001045572 3.1001045572 3.094210889 3.0883172208 
3.0883172208 3.0883172208 3.0883172208 3.0883172208 3.0883172208 3.094210889 3.1001045572 3.1001045572 3.094210889 
3.0883172208 3.0883172208 3.0883172208 3.0883172208 3.0883172208 3.094210889 3.1001045572 3.1001045572 3.1001045572 
3.094210889 3.0883172208 3.0883172208 3.0883172208 3.0883172208 3.094210889 3.1001045572 3.1001045572 3.094210889 
3.094210889 3.0883172208 3.0883172208 3.0883172208 3.0883172208 3.0883172208 3.0883172208 3.094210889 3.1001045572 
3.1001045572 3.1001045572 3.094210889 3.0883172208 3.0883172208 3.0883172208 3.0883172208 3.0883172208 3.094210889 
3.1001045572 3.1001045572 3.1001045572 3.094210889 3.0883172208 3.0883172208 3.0883172208 3.0883172208 3.0883172208 
3.094210889 3.1001045572 3.1001045572 3.094210889 3.0883172208 3.0883172208 3.0883172208 3.0883172208 3.094210889 
3.1001045572 3.1001045572 3.094210889 3.0883172208 3.0883172208 3.0883172208 3.0883172208 3.0883172208 3.094210889 
3.094210889 3.1001045572 3.1001045572 3.1001045572 3.1001045572 3.094210889 3.0883172208 3.0883172208 3.0883172208 
3.0883172208 3.094210889 3.1001045572 3.1001045572 3.094210889 3.0883172208 3.0883172208 3.0883172208 3.0883172208 
3.0883172208 3.094210889 3.1001045572 3.1001045572 3.094210889 3.0883172208 3.0883172208 3.0883172208 3.0883172208 
3.0883172208 3.0883172208 3.0883172208 3.0883172208 3.094210889 3.1001045572 3.1001045572 3.1001045572 3.094210889 
3.0883172208 3.0883172208 3.0883172208 3.0883172208 3.0883172208 3.094210889 3.1001045572 3.1001045572 3.1001045572 
3.094210889 3.0883172208 3.0883172208 3.0883172208 3.0883172208 3.094210889 3.1001045572 3.1001045572 3.094210889 
3.0883172208 3.0883172208 3.0883172208 3.0883172208 3.0883172208 3.0883172208 3.0883172208 3.094210889 3.1001045572 
3.1001045572 3.1001045572 3.094210889 3.0883172208 3.0883172208 3.0883172208 3.0883172208 3.0883172208 3.094210889 
3.1001045572 3.1001045572 3.094210889 3.0883172208 3.0883172208 3.0883172208 3.0883172208 3.0883172208 3.094210889 
3.1001045572 3.1001045572 3.1001045572 3.094210889 3.0883172208 3.0883172208 3.0883172208 3.0883172208 3.0883172208 
3.094210889 3.1001045572 3.1001045572 3.094210889 3.0883172208 3.0883172208 3.0883172208 3.0883172208 3.0883172208 
3.0883172208 3.094210889 3.1001045572 3.1001045572 3.094210889 3.0883172208 3.0883172208 3.0883172208 3.0883172208 
3.0883172208 3.094210889 3.1001045572 3.1001045572 3.094210889 3.0883172208 3.0883172208 3.0883172208 3.0883172208 
3.0883172208 3.094210889 3.1001045572 3.1001045572 3.1001045572 3.094210889 3.0883172208 3.0883172208 3.0883172208 
3.0883172208 3.0883172208 3.0883172208 3.094210889 3.1001045572 3.1059982254 3.1059982254 3.1059982254 3.1059982254 
3.1059982254 3.1001045572 3.094210889 3.0883172208 3.0883172208 3.0883172208 3.0883172208 3.0883172208 3.094210889 
3.1001045572 3.1059982254 3.1059982254 3.1059982254 3.1059982254 3.1059982254 3.1059982254 3.1059982254 3.1001045572 
3.1001045572 3.094210889 3.0883172208 3.0883172208 3.0883172208 3.0883172208 3.0883172208 3.094210889 3.1001045572 
3.1059982254 3.1059982254 3.1059982254 3.1001045572 3.094210889 3.0883172208 3.0883172208 3.0883172208 3.0883172208 
3.0883172208 3.094210889 3.1001045572 3.1059982254 3.1059982254 3.1059982254 3.1001045572 3.094210889 3.0883172208 
3.0883172208 3.0883172208 3.0883172208 3.094210889 3.1001045572 3.1059982254 3.1059982254 3.1001045572 3.094210889 
3.0883172208 3.0883172208 3.0883172208 3.0883172208 3.0883172208 3.0883172208 3.094210889 3.1001045572 3.1059982254 
3.1059982254 3.1059982254 3.1059982254 3.1001045572 3.094210889 3.0883172208 3.0883172208 3.0883172208 3.0883172208 
3.0883172208 3.0883172208 3.094210889 3.1001045572 3.1001045572 3.1059982254 3.1059982254 3.1059982254 3.1001045572 
3.094210889 3.0883172208 3.0883172208 3.0883172208 3.0883172208 3.0883172208 3.094210889 3.1001045572 3.1059982254 
3.1059982254 3.1059982254 3.1001045572 3.094210889 3.0883172208 3.0883172208 3.0883172208 3.0883172208 3.094210889 
3.1001045572 3.1059982254 3.1059982254 3.1001045572 3.094210889 3.0883172208 3.0883172208 3.0883172208 3.0883172208 
3.0883172208 3.0883172208 3.094210889 3.094210889 3.1001045572 3.1059982254 3.1059982254 3.1001045572 3.094210889 
3.0883172208 3.0883172208 3.0883172208 3.0883172208 3.094210889 3.1001045572 3.1059982254 3.1059982254 3.1059982254 
3.1001045572 3.094210889 3.0883172208 3.0883172208 3.0883172208 3.0883172208 3.0883172208 3.0883172208 3.094210889 
3.1001045572 3.1059982254 3.1059982254 3.1059982254 3.1001045572 3.094210889 3.0883172208 3.0883172208 3.0883172208 
3.0883172208 3.0883172208 3.094210889 3.1001045572 3.1059982254 3.1059982254 3.1001045572 3.094210889 3.0883172208 
3.0883172208 3.0883172208 3.0883172208 3.094210889 3.1001045572 3.1001045572 3.1059982254 3.1059982254 3.1001045572 
3.094210889 3.094210889 3.0883172208 3.0883172208 3.0883172208 3.0883172208 3.0883172208 3.094210889 3.1001045572 
3.1059982254 3.1118918936 3.1118918936 3.1118918936 3.1059982254 3.1059982254 3.1001045572 3.094210889 3.0883172208 
3.0883172208 3.0883172208 3.0883172208 3.0883172208 3.094210889 3.1001045572 3.1059982254 3.1059982254 3.1118918936 
3.1118918936 3.1118918936 3.1118918936 3.1059982254 3.1001045572 3.094210889 3.0883172208 3.0883172208 3.0883172208 
3.0883172208 3.0883172208 3.094210889 3.1001045572 3.1059982254 3.1118918936 3.1118918936 3.1118918936 3.1118918936 
3.1059982254 3.1001045572 3.094210889 3.0883172208 3.0824235526 3.0824235526 3.0824235526 3.0824235526 3.0883172208 
3.0883172208 3.0883172208 3.094210889 3.1001045572 3.1059982254 3.1118918936 3.1118918936 3.1118918936 3.1118918936 
3.1059982254 3.1059982254 3.1001045572 3.094210889 3.0883172208 3.0824235526 3.0824235526 3.0824235526 3.0883172208 
3.0883172208 3.0883172208 3.0883172208 3.0883172208 3.0883172208 3.094210889 3.1001045572 3.1059982254 3.1059982254 
3.1118918936 3.1118918936 3.1118918936 3.1118918936 3.1059982254 3.1001045572 3.1001045572 3.094210889 3.0883172208 
3.0824235526 3.0824235526 3.0824235526 3.0883172208 3.0883172208 3.0883172208 3.094210889 3.1001045572 3.1059982254 
3.1118918936 3.1118918936 3.1059982254 3.1001045572 3.094210889 3.0883172208 3.0883172208 3.0824235526 3.0824235526 
3.0824235526 3.0824235526 3.0883172208 3.0883172208 3.0883172208 3.0883172208 3.094210889 3.1001045572 3.1059982254 
3.1118918936 3.1118918936 3.1118918936 3.1118918936 3.1059982254 3.1059982254 3.1001045572 3.094210889 3.0883172208 
3.0824235526 3.0824235526 3.0824235526 3.0824235526 3.0883172208 3.0883172208 3.0883172208 3.094210889 3.1001045572 
3.1059982254 3.1118918936 3.1118918936 3.1059982254 3.1001045572 3.094210889 3.0883172208 3.0824235526 3.0824235526 
3.0824235526 3.0883172208 3.0883172208 3.0883172208 3.0883172208 3.094210889 3.1001045572 3.1059982254 3.1059982254 
3.1118918936 3.1118918936 3.1118918936 3.1059982254 3.1001045572 3.094210889 3.0883172208 3.0824235526 3.0824235526 
3.0824235526 3.0824235526 3.0824235526 3.0883172208 3.0883172208 3.0883172208 3.0883172208 3.094210889 3.1001045572 
3.1059982254 3.1118918936 3.1118918936 3.1118918936 3.1059982254 3.1001045572 3.094210889 3.0883172208 3.0824235526 
3.0824235526 3.0883172208 3.0883172208 3.0883172208 3.094210889 3.1001045572 3.1059982254 3.1118918936 3.1118918936 
3.1059982254 3.1001045572 3.094210889 3.0883172208 3.0824235526 3.0824235526 3.0883172208 3.0883172208 3.0883172208 
3.0883172208 3.0883172208 3.0883172208 3.094210889 3.1001045572 3.1059982254 3.1118918936 3.1177855618 3.1177855618 
3.1177855618 3.1118918936 3.1118918936 3.1059982254 3.1001045572 3.094210889 3.0883172208 3.0824235526 3.0824235526 
3.0824235526 3.0883172208 3.0883172208 3.0824235526 3.0824235526 3.0824235526 3.0824235526 3.0824235526 3.0824235526 
3.0824235526 3.0824235526 3.0883172208 3.094210889 3.1001045572 3.1059982254 3.1118918936 3.1177855618 3.1177855618 
3.1177855618 3.1118918936 3.1059982254 3.1059982254 3.1001045572 3.094210889 3.0883172208 3.0824235526 3.0824235526 
3.0824235526 3.0883172208 3.0883172208 3.0824235526 3.0824235526 3.0824235526 3.0824235526 3.0824235526 3.0883172208 
3.0883172208 3.094210889 3.1001045572 3.1001045572 3.1059982254 3.1118918936 3.1118918936 3.1177855618 3.1177855618 
3.1177855618 3.1177855618 3.1118918936 3.1118918936 3.1059982254 3.1001045572 3.094210889 3.0883172208 3.0824235526 
3.0824235526 3.0883172208 3.0883172208 3.0824235526 3.0824235526 3.0824235526 3.0883172208 3.094210889 3.1001045572 
3.1059982254 3.1118918936 3.1177855618 3.1177855618 3.1177855618 3.1177855618 3.1118918936 3.1059982254 3.1001045572 
3.094210889 3.0883172208 3.0883172208 3.0824235526 3.0824235526 3.0824235526 3.0883172208 3.0883172208 3.0824235526 
3.0824235526 3.0824235526 3.0824235526 3.0824235526 3.0883172208 3.094210889 3.1001045572 3.1059982254 3.1118918936 
3.1118918936 3.1177855618 3.1177855618 3.1177855618 3.1177855618 3.1118918936 3.1059982254 3.1001045572 3.094210889 
3.0883172208 3.0824235526 3.0824235526 3.0883172208 3.0883172208 3.0824235526 3.0824235526 3.0824235526 3.0824235526 
3.0883172208 3.094210889 3.1001045572 3.1059982254 3.1118918936 3.1177855618 3.1177855618 3.1118918936 3.1059982254 
3.1001045572 3.094210889 3.0883172208 3.0824235526 3.0824235526 3.0824235526 3.0883172208 3.0883172208 3.0824235526 
3.0824235526 3.0824235526 3.0824235526 3.0883172208 3.094210889 3.1001045572 3.1059982254 3.1118918936 3.1177855618 
3.1177855618 3.1177855618 3.1177855618 3.1118918936 3.1118918936 3.1059982254 3.1059982254 3.1001045572 3.1001045572 
3.094210889 3.0883172208 3.0824235526 3.0824235526 3.0883172208 3.0883172208 3.0824235526 3.0824235526 3.0883172208 
3.094210889 3.094210889 3.1001045572 3.1059982254 3.1059982254 3.1118918936 3.1177855618 3.1177855618 3.1177855618 
3.1118918936 3.1059982254 3.1001045572 3.094210889 3.0883172208 3.0824235526 3.0824235526 3.0883172208 3.0883172208 
3.0883172208 3.0824235526 3.0824235526 3.0824235526 3.0824235526 3.0883172208 3.094210889 3.1001045572 3.1059982254 
3.1118918936 3.1177855618 3.1177855618 3.1177855618 3.1118918936 3.1059982254 3.1001045572 3.094210889 3.0883172208 
3.0824235526 3.0824235526 3.0883172208 3.0883172208 3.0824235526 3.0824235526 3.0883172208 3.094210889 3.1001045572 
3.1059982254 3.1118918936 3.1118918936 3.1177855618 3.12367923 3.12367923 3.12367923 3.12367923 3.1177855618 
3.1118918936 3.1059982254 3.1001045572 3.094210889 3.0883172208 3.0824235526 3.0824235526 3.0824235526 3.0824235526 
3.0883172208 3.0883172208 3.0824235526 3.0824235526 3.0824235526 3.0824235526 3.0883172208 3.094210889 3.1001045572 
3.1059982254 3.1118918936 3.1177855618 3.1177855618 3.12367923 3.12367923 3.12367923 3.12367923 3.12367923 
3.1177855618 3.1177855618 3.1118918936 3.1118918936 3.1059982254 3.1001045572 3.094210889 3.0883172208 3.0883172208 
3.0824235526 3.0824235526 3.0883172208 3.0883172208 3.0883172208 3.0824235526 3.0824235526 3.0883172208 3.094210889 
3.1001045572 3.1059982254 3.1118918936 3.1177855618 3.12367923 3.12367923 3.12367923 3.1177855618 3.1118918936 
3.1059982254 3.1059982254 3.1001045572 3.094210889 3.0883172208 3.0824235526 3.0824235526 3.0883172208 3.0883172208 
3.0824235526 3.0824235526 3.0824235526 3.0883172208 3.0883172208 3.094210889 3.094210889 3.1001045572 3.1059982254 
3.1118918936 3.1177855618 3.12367923 3.12367923 3.12367923 3.12367923 3.1177855618 3.1118918936 3.1059982254 
3.1001045572 3.094210889 3.0883172208 3.0824235526 3.0824235526 3.0883172208 3.0883172208 3.0824235526 3.0824235526 
3.0824235526 3.0883172208 3.094210889 3.094210889 3.1001045572 3.1059982254 3.1059982254 3.1118918936 3.1118918936 
3.1177855618 3.1177855618 3.12367923 3.12367923 3.12367923 3.1177855618 3.1177855618 3.1118918936 3.1118918936 
3.1059982254 3.1001045572 3.1001045572 3.094210889 3.0883172208 3.0824235526 3.0824235526 3.0824235526 3.0883172208 
3.0883172208 3.0824235526 3.0824235526 3.0824235526 3.0883172208 3.094210889 3.1001045572 3.1059982254 3.1118918936 
3.1177855618 3.12367923 3.12367923 3.1177855618 3.1118918936 3.1059982254 3.1001045572 3.094210889 3.094210889 
3.0883172208 3.0824235526 3.0824235526 3.0883172208 3.0883172208 3.0824235526 3.0824235526 3.0824235526 3.0883172208 
3.094210889 3.1001045572 3.1059982254 3.1118918936 3.1177855618 3.12367923 3.12367923 3.1295728982 3.1295728982 
3.1295728982 3.12367923 3.12367923 3.1177855618 3.1118918936 3.1059982254 3.1059982254 3.1001045572 3.094210889 
3.0883172208 3.0824235526 3.0824235526 3.0824235526 3.0883172208 3.0883172208 3.0824235526 3.0824235526 3.0883172208 
3.0883172208 3.094210889 3.1001045572 3.1059982254 3.1118918936 3.1177855618 3.12367923 3.1295728982 3.1295728982 
3.1295728982 3.1295728982 3.12367923 3.1177855618 3.1177855618 3.1118918936 3.1059982254 3.1001045572 3.094210889 
3.0883172208 3.0824235526 3.0824235526 3.0824235526 3.0883172208 3.0883172208 3.0883172208 3.0824235526 3.0824235526 
3.0824235526 3.0824235526 3.0883172208 3.094210889 3.1001045572 3.1059982254 3.1118918936 3.1177855618 3.1177855618 
3.12367923 3.12367923 3.1295728982 3.1295728982 3.1295728982 3.1295728982 3.1295728982 3.12367923 3.1177855618 
3.1118918936 3.1059982254 3.1001045572 3.094210889 3.0883172208 3.0824235526 3.0824235526 3.0883172208 3.0883172208 
3.0883172208 3.0824235526 3.0824235526 3.0883172208 3.094210889 3.1001045572 3.1059982254 3.1118918936 3.1177855618 
3.12367923 3.1295728982 3.1295728982 3.1295728982 3.12367923 3.12367923 3.1177855618 3.1118918936 3.1118918936 
3.1059982254 3.1001045572 3.094210889 3.0883172208 3.0824235526 3.0824235526 3.0883172208 3.0883172208 3.0824235526 