# vtk DataFile Version 4.2
vtk output
ASCII
DATASET POLYDATA
POINTS 18547 float
-592.248 -3947.32 0 -606.384 -3944.25 0 -586.112 -3944.25 0 
-888.255 -3928 0 -906.836 -3927.26 0 -851.254 -3929.48 0 
-814.253 -3930.96 0 -777.252 -3932.45 0 -740.251 -3933.93 0 
-703.25 -3935.41 0 -666.25 -3936.89 0 -629.249 -3939.35 0 
-555.246 -3929.59 0 -552.978 -3927.25 0 -1295.27 -3911.7 0 
-1330.99 -3910.27 0 -1258.26 -3913.18 0 -1221.26 -3914.66 0 
-1184.26 -3916.14 0 -1147.26 -3917.63 0 -1110.26 -3919.11 0 
-1073.26 -3920.59 0 -1036.26 -3922.07 0 -999.258 -3923.55 0 
-962.257 -3925.04 0 -925.256 -3926.52 0 -536.516 -3910.24 0 
-1554.27 -3901.32 0 -1566.36 -3893.27 0 -1517.27 -3902.8 0 
-1480.27 -3904.29 0 -1443.27 -3905.77 0 -1406.27 -3907.25 0 
-1369.27 -3908.73 0 -1332.27 -3910.21 0 -520.053 -3893.24 0 
-1585.44 -3876.27 0 -518.243 -3891.37 0 -503.592 -3876.24 0 
-1591.27 -3869.58 0 -1598.92 -3859.27 0 -487.13 -3859.24 0 
-1611.55 -3842.27 0 -481.24 -3853.16 0 -470.064 -3842.24 0 
-1624.17 -3825.27 0 -454.206 -3825.24 0 -1628.27 -3819.75 0 
-1636.79 -3808.27 0 -444.236 -3814.94 0 -436.572 -3808.24 0 
-1649.42 -3791.27 0 -420.77 -3791.23 0 -1662.04 -3774.27 0 
-407.233 -3776.85 0 -404.008 -3774.23 0 -1665.27 -3769.92 0 
-1674.66 -3757.27 0 -385.768 -3757.23 0 -1687.28 -3740.27 0 
-371.896 -3740.23 0 -1699.91 -3723.26 0 -370.23 -3738.51 0 
-351.274 -3723.23 0 -1702.26 -3720.09 0 -1712.53 -3706.26 0 
-335.941 -3706.23 0 -1725.15 -3689.26 0 -333.227 -3703.04 0 
-317.507 -3689.23 0 -1737.77 -3672.26 0 -299.788 -3672.22 0 
-1739.26 -3670.26 0 -1750.4 -3655.26 0 -296.224 -3667.98 0 
-282.586 -3655.22 0 -1763.02 -3638.26 0 -263.87 -3638.22 0 
-1775.64 -3621.26 0 -259.221 -3633.36 0 -246.244 -3621.22 0 
-1776.26 -3620.43 0 -1788.27 -3604.26 0 -228.073 -3604.22 0 
-1800.89 -3587.26 0 -222.218 -3598.74 0 -209.902 -3587.22 0 
-1813.26 -3570.6 0 -1813.51 -3570.26 0 -191.73 -3570.22 0 
-1826.13 -3553.26 0 -185.215 -3564.12 0 -173.559 -3553.21 0 
-1838.76 -3536.26 0 -155.388 -3536.21 0 -1850.26 -3520.77 0 
-1851.38 -3519.26 0 -148.212 -3529.5 0 -137.217 -3519.21 0 
-1864 -3502.26 0 -119.046 -3502.21 0 -1876.62 -3485.26 0 
-111.209 -3494.88 0 -100.875 -3485.21 0 -1887.26 -3470.94 0 
-1889.25 -3468.25 0 -82.7038 -3468.21 0 -1901.87 -3451.25 0 
-74.2055 -3460.26 0 -64.5327 -3451.2 0 -1914.49 -3434.25 0 
-46.3615 -3434.2 0 -1924.25 -3421.11 0 -1927.12 -3417.25 0 
-37.2025 -3425.63 0 -28.1904 -3417.2 0 -1939.74 -3400.25 0 
-10.0193 -3400.2 0 -1952.36 -3383.25 0 -0.19946 -3391.01 0 
8.15177 -3383.2 0 -1961.25 -3371.28 0 -1964.98 -3366.25 0 
26.3228 -3366.2 0 -1976.01 -3349.25 0 36.8036 -3356.39 0 
44.4939 -3349.2 0 -1982.33 -3332.25 0 62.665 -3332.19 0 
-1988.84 -3315.25 0 73.8066 -3321.77 0 80.8361 -3315.19 0 
-1995.36 -3298.25 0 99.0073 -3298.19 0 -1998.25 -3290.72 0 
-2001.88 -3281.25 0 110.81 -3287.15 0 117.178 -3281.19 0 
-2008.4 -3264.25 0 135.349 -3264.19 0 -2014.92 -3247.25 0 
147.813 -3252.53 0 153.521 -3247.19 0 -2021.44 -3230.24 0 
171.692 -3230.19 0 -2027.95 -3213.24 0 184.816 -3217.91 0 
186.276 -3213.18 0 -2034.47 -3196.24 0 190.681 -3196.18 0 
-2035.24 -3194.23 0 -2040.99 -3179.24 0 194.095 -3179.18 0 
-2047.51 -3162.24 0 194.937 -3162.18 0 -2054.03 -3145.24 0 
194.849 -3145.18 0 -2060.55 -3128.24 0 194.762 -3128.18 0 
-2067.07 -3111.24 0 194.674 -3111.18 0 -2072.24 -3097.75 0 
-2073.58 -3094.24 0 194.587 -3094.18 0 3440.91 -3106.81 0 
3430.63 -3094.09 0 3477.91 -3103.8 0 3511.33 -3094.09 0 
-2080.1 -3077.24 0 194.499 -3077.18 0 3418.64 -3077.09 0 
3514.91 -3093.05 0 3551.91 -3082.3 0 3569.86 -3077.08 0 
-2086.62 -3060.24 0 195.799 -3060.17 0 3403.91 -3061.02 0 
3403.16 -3060.09 0 3588.92 -3071.55 0 3625.92 -3060.8 0 
3628.38 -3060.08 0 -2093.14 -3043.24 0 198.421 -3043.17 0 
3389.42 -3043.09 0 3662.92 -3050.05 0 3686.91 -3043.08 0 
-2099.66 -3026.23 0 201.044 -3026.17 0 3375.68 -3026.09 0 
3699.92 -3039.3 0 3736.92 -3028.55 0 3745.43 -3026.08 0 
-2106.18 -3009.23 0 203.614 -3009.17 0 3366.91 -3015.23 0 
3361.95 -3009.09 0 3773.92 -3017.8 0 3803.96 -3009.07 0 
-2109.23 -3001.26 0 -2112.69 -2992.23 0 207.448 -2992.17 0 
3348.21 -2992.09 0 3810.93 -3007.05 0 3847.93 -2996.3 0 
3862.48 -2992.07 0 -2119.21 -2975.23 0 210.732 -2975.17 0 
3334.48 -2975.08 0 3884.93 -2985.55 0 3921.01 -2975.07 0 
-2125.73 -2958.23 0 213.577 -2958.17 0 3329.92 -2969.44 0 
3320.74 -2958.08 0 3921.93 -2974.8 0 3958.93 -2964.05 0 
3979.54 -2958.07 0 -2132.25 -2941.23 0 216.065 -2941.17 0 
3307.01 -2941.08 0 3995.93 -2953.3 0 4032.94 -2942.55 0 
4038.06 -2941.06 0 -2138.77 -2924.23 0 218.152 -2924.17 0 
3293.27 -2924.08 0 4069.94 -2931.8 0 4096.59 -2924.06 0 
-2145.29 -2907.23 0 221.835 -2908.61 0 222.284 -2907.17 0 
3292.92 -2923.65 0 3279.53 -2907.08 0 4106.94 -2921.05 0 
4143.94 -2910.3 0 4155.11 -2907.06 0 4402.95 -2908.96 0 
4394.74 -2907.05 0 4409.99 -2907.05 0 -2146.23 -2904.77 0 
-2151.8 -2890.23 0 227.166 -2890.16 0 1603.05 -2890.13 0 
1627.87 -2899.03 0 1664.88 -2890.58 0 1668.72 -2890.13 0 
3265.8 -2890.08 0 4180.94 -2899.55 0 4213.64 -2890.06 0 
4328.95 -2891.77 0 4321.53 -2890.05 0 4365.95 -2900.37 0 
4439.95 -2890.29 0 4440.12 -2890.05 0 -2158.32 -2873.23 0 
231.393 -2873.16 0 1555.33 -2873.13 0 1590.87 -2886.44 0 
1701.88 -2886.16 0 1738.88 -2881.73 0 1775.88 -2877.3 0 
1810.81 -2873.12 0 3255.92 -2877.86 0 3252.06 -2873.08 0 
4217.94 -2888.8 0 4254.95 -2878.39 0 4291.95 -2883.18 0 
4452.39 -2873.05 0 -2164.84 -2856.23 0 235.09 -2856.16 0 
1509.97 -2856.13 0 1516.87 -2858.72 0 1553.87 -2872.58 0 
1812.88 -2872.87 0 1849.88 -2868.44 0 1886.88 -2864.02 0 
1923.88 -2859.59 0 1952.91 -2856.12 0 3238.33 -2856.08 0 
4464.65 -2856.05 0 -2171.36 -2839.23 0 238.276 -2839.16 0 
1464.6 -2839.13 0 1479.87 -2844.85 0 1960.89 -2855.16 0 
1997.89 -2850.73 0 2034.89 -2846.3 0 2071.89 -2841.88 0 
2095 -2839.11 0 3224.59 -2839.08 0 4476.91 -2839.05 0 
-2177.88 -2822.22 0 242.301 -2822.16 0 1419.23 -2822.13 0 
1442.87 -2830.99 0 2108.89 -2837.45 0 2145.89 -2833.02 0 
2182.89 -2828.59 0 2197.57 -2822.11 0 3218.92 -2832.06 0 
3210.85 -2822.08 0 4476.95 -2838.99 0 4489.17 -2822.04 0 
-2183.22 -2808.28 0 -2184.4 -2805.22 0 246.326 -2805.16 0 
1373.86 -2805.13 0 1405.87 -2817.12 0 2214.37 -2805.11 0 
3197.12 -2805.08 0 4501.44 -2805.04 0 -2190.92 -2788.22 0 
250.35 -2788.16 0 1328.49 -2788.13 0 1331.87 -2789.39 0 
1368.87 -2803.26 0 2219.9 -2792.91 0 2220.94 -2788.1 0 
3183.38 -2788.08 0 4513.7 -2788.04 0 -2197.43 -2771.22 0 
254.375 -2771.16 0 1283.12 -2771.13 0 1294.87 -2775.53 0 
2224.64 -2771.1 0 3181.92 -2786.27 0 3169.65 -2771.08 0 
4513.96 -2787.69 0 4525.96 -2771.04 0 -2203.95 -2754.22 0 
258.4 -2754.16 0 1237.76 -2754.13 0 1257.87 -2761.67 0 
2228.34 -2754.1 0 3155.91 -2754.08 0 4538.23 -2754.04 0 
-2210.47 -2737.22 0 258.845 -2752.28 0 262.425 -2737.15 0 
1192.39 -2737.13 0 1220.87 -2747.8 0 2232.03 -2737.1 0 
3144.92 -2740.48 0 3142.14 -2737.08 0 4550.49 -2737.04 0 
-2216.99 -2720.22 0 266.45 -2720.15 0 1147.02 -2720.13 0 
1183.87 -2733.94 0 2235.73 -2720.1 0 3134.1 -2720.08 0 
4550.96 -2736.38 0 4562.75 -2720.04 0 -2220.22 -2711.8 0 
-2223.51 -2703.22 0 270.475 -2703.15 0 1103.95 -2703.13 0 
1109.87 -2706.21 0 1146.87 -2720.07 0 2239.43 -2703.1 0 
3134.74 -2703.07 0 4577.71 -2703.04 0 -2230.03 -2686.22 0 
274.499 -2686.15 0 1075.95 -2686.13 0 2243.13 -2686.1 0 
3138.44 -2686.07 0 4587.97 -2696.44 0 4603.36 -2686.03 0 
-2236.54 -2669.22 0 278.524 -2669.15 0 1052.12 -2669.13 0 
1072.87 -2683.96 0 2246.82 -2669.1 0 3142.14 -2669.07 0 
4624.97 -2672.38 0 4630.27 -2669.03 0 -2243.06 -2652.22 0 
282.549 -2652.15 0 1028.35 -2652.13 0 1035.87 -2657.51 0 
2250.52 -2652.1 0 3144.93 -2656.25 0 3145.84 -2652.07 0 
4657.18 -2652.03 0 -2249.58 -2635.22 0 286.574 -2635.15 0 
1004.57 -2635.13 0 2254.22 -2635.09 0 3149.54 -2635.07 0 
4661.97 -2649 0 4684.09 -2635.03 0 -2256.42 -2618.22 0 
290.599 -2618.15 0 980.792 -2618.13 0 998.872 -2631.05 0 
2256.91 -2622.74 0 2257.92 -2618.09 0 3153.24 -2618.07 0 
4698.97 -2625.63 0 4711 -2618.03 0 -2257.22 -2616.26 0 
-2263.48 -2601.21 0 294.624 -2601.15 0 960.314 -2601.13 0 
961.873 -2604.6 0 2261.61 -2601.09 0 3156.94 -2601.07 0 
4735.98 -2602.25 0 4737.91 -2601.02 0 -2270.55 -2584.21 0 
295.855 -2595.94 0 298.648 -2584.14 0 952.793 -2584.13 0 
2265.31 -2584.09 0 3160.64 -2584.07 0 4764.82 -2584.02 0 
-2277.63 -2567.21 0 302.673 -2567.14 0 945.451 -2567.13 0 
2269.01 -2567.09 0 3164.34 -2567.07 0 4772.98 -2578.87 0 
4791.73 -2567.02 0 -2284.71 -2550.21 0 306.698 -2550.14 0 
938.282 -2550.12 0 2272.71 -2550.09 0 3168.04 -2550.06 0 
4809.98 -2555.49 0 4818.64 -2550.02 0 -2291.78 -2533.21 0 
310.723 -2533.14 0 931.28 -2533.12 0 2276.4 -2533.09 0 
3171.74 -2533.06 0 4845.56 -2533.02 0 -2294.21 -2527.38 0 
-2298.86 -2516.21 0 314.748 -2516.14 0 924.46 -2516.12 0 
924.877 -2517.22 0 2280.1 -2516.09 0 3170.91 -2516.06 0 
4846.98 -2532.12 0 4872.47 -2516.02 0 -2305.93 -2499.21 0 
318.773 -2499.14 0 918.025 -2499.12 0 2283.8 -2499.09 0 
3166.85 -2499.06 0 4883.98 -2508.74 0 4899.38 -2499.01 0 
-2313.01 -2482.21 0 322.797 -2482.14 0 911.589 -2482.12 0 
2287.5 -2482.08 0 3160.93 -2482.06 0 4920.99 -2485.36 0 
4926.29 -2482.01 0 -2320.09 -2465.21 0 326.822 -2465.14 0 
905.153 -2465.12 0 2291.19 -2465.08 0 3155.01 -2465.06 0 
4953.2 -2465.01 0 -2327.16 -2448.21 0 330.847 -2448.14 0 
898.718 -2448.12 0 2293.92 -2452.56 0 2294.89 -2448.08 0 
3149.09 -2448.06 0 4957.99 -2461.99 0 4980.11 -2448.01 0 
-2331.21 -2438.49 0 -2334.24 -2431.21 0 332.866 -2439.61 0 
334.872 -2431.13 0 892.282 -2431.12 0 2298.59 -2431.08 0 
3144.94 -2436.14 0 3143.17 -2431.06 0 4994.99 -2438.61 0 
5007.02 -2431.01 0 -2341.31 -2414.21 0 338.897 -2414.13 0 
885.846 -2414.12 0 887.882 -2419.5 0 2302.29 -2414.08 0 
3137.25 -2414.06 0 5031.99 -2415.23 0 5033.93 -2414.01 0 
-2348.39 -2397.2 0 342.922 -2397.13 0 879.41 -2397.12 0 
2305.98 -2397.08 0 3131.33 -2397.06 0 5060.84 -2397 0 
-2355.47 -2380.2 0 346.946 -2380.13 0 872.975 -2380.12 0 
2309.68 -2380.08 0 3125.41 -2380.06 0 5069 -2391.85 0 
5087.75 -2380 0 -2362.54 -2363.2 0 350.971 -2363.13 0 
[...]
POINT_DATA 18547
SCALARS Pressure double
LOOKUP_TABLE default
3.0883172208 3.0883172208 3.0883172208 3.0883172208 3.0883172208 3.0883172208 3.0883172208 3.0883172208 3.0883172208 
3.0883172208 3.0883172208 3.0883172208 3.0883172208 3.0883172208 3.0883172208 3.0883172208 3.0883172208 3.0883172208 
3.0883172208 3.0883172208 3.0883172208 3.0883172208 3.0883172208 3.0883172208 3.0883172208 3.0883172208 3.0883172208 
3.0883172208 3.0883172208 3.0883172208 3.0883172208 3.0883172208 3.0883172208 3.0883172208 3.0883172208 3.0883172208 
3.0883172208 3.0883172208 3.0883172208 3.0883172208 3.0883172208 3.0883172208 3.0883172208 3.0883172208 3.0883172208 
3.0883172208 3.0883172208 3.0883172208 3.0883172208 3.0883172208 3.0883172208 3.0883172208 3.0883172208 3.0883172208 
3.0883172208 3.0883172208 3.0883172208 3.0883172208 3.0883172208 3.0883172208 3.0883172208 3.0883172208 3.0883172208 
3.0883172208 3.0883172208 3.0883172208 3.0883172208 3.0883172208 3.0883172208 3.0883172208 3.0883172208 3.0883172208 
3.0883172208 3.0883172208 3.0883172208 3.0883172208 3.0883172208 3.0883172208 3.0883172208 3.0883172208 3.0883172208 
3.0883172208 3.0883172208 3.0883172208 3.0883172208 3.0883172208 3.0883172208 3.0883172208 3.0883172208 3.0883172208 
3.0883172208 3.0883172208 3.0883172208 3.0883172208 3.0883172208 3.0883172208 3.0883172208 3.0883172208 3.0883172208 
3.0883172208 3.0883172208 3.0883172208 3.0883172208 3.0883172208 3.0883172208 3.0883172208 3.0883172208 3.0883172208 
3.0883172208 3.0883172208 3.0883172208 3.0883172208 3.0883172208 3.0883172208 3.0883172208 3.0883172208 3.0883172208 
3.0883172208 3.0883172208 3.0883172208 3.0883172208 3.0883172208 3.0883172208 3.0883172208 3.0883172208 3.0883172208 
3.0883172208 3.0883172208 3.0883172208 3.0883172208 3.0883172208 3.0883172208 3.0883172208 3.0883172208 3.0883172208 
3.0883172208 3.0883172208 3.0883172208 3.0883172208 3.0883172208 3.0883172208 3.0883172208 3.0883172208 3.0883172208 
3.0883172208 3.0883172208 3.0883172208 3.0883172208 3.0883172208 3.0883172208 3.0883172208 3.0883172208 3.0883172208 
3.0883172208 3.0883172208 3.0883172208 3.0883172208 3.0883172208 3.0883172208 3.0883172208 3.0883172208 3.0883172208 
3.0883172208 3.0883172208 3.0883172208 3.0883172208 3.0883172208 3.0883172208 3.0883172208 3.0883172208 3.0883172208 
3.0883172208 3.0883172208 3.0883172208 3.0883172208 3.0883172208 3.0883172208 3.0883172208 3.0883172208 3.0883172208 
3.0883172208 3.0883172208 3.0883172208 3.0883172208 3.0883172208 3.0883172208 3.0883172208 3.0883172208 3.0883172208 
3.0883172208 3.0883172208 3.0883172208 3.0883172208 3.0883172208 3.0883172208 3.0883172208 3.0883172208 3.0883172208 
3.0883172208 3.0883172208 3.0883172208 3.0883172208 3.0883172208 3.0883172208 3.0883172208 3.0883172208 3.0883172208 
3.0883172208 3.0883172208 3.0883172208 3.0883172208 3.0883172208 3.0883172208 3.0883172208 3.0883172208 3.0883172208 
3.0883172208 3.0883172208 3.0883172208 3.0883172208 3.0883172208 3.0883172208 3.0883172208 3.0883172208 3.0883172208 
3.0883172208 3.0883172208 3.0883172208 3.0883172208 3.0883172208 3.0883172208 3.0883172208 3.0883172208 3.0883172208 
3.0883172208 3.0883172208 3.0883172208 3.0883172208 3.0883172208 3.0883172208 3.0883172208 3.0883172208 3.094210889 
3.094210889 3.094210889 3.094210889 3.0883172208 3.0883172208 3.0883172208 3.0883172208 3.0883172208 3.0883172208 
3.0883172208 3.0883172208 3.0883172208 3.0883172208 3.094210889 3.094210889 3.094210889 3.094210889 3.094210889 
3.094210889 3.0883172208 3.0883172208 3.0883172208 3.0883172208 3.0883172208 3.0883172208 3.0883172208 3.0883172208 
3.094210889 3.094210889 3.094210889 3.094210889 3.094210889 3.094210889 3.094210889 3.094210889 3.0883172208 
3.0883172208 3.0883172208 3.0883172208 3.094210889 3.094210889 3.094210889 3.094210889 3.094210889 3.094210889 
3.094210889 3.0883172208 3.0883172208 3.0883172208 3.0883172208 3.094210889 3.094210889 3.094210889 3.094210889 
3.094210889 3.094210889 3.0883172208 3.0883172208 3.0883172208 3.0883172208 3.0883172208 3.0883172208 3.0883172208 
3.094210889 3.094210889 3.094210889 3.0883172208 3.0883172208 3.0883172208 3.0883172208 3.094210889 3.094210889 
3.094210889 3.094210889 3.094210889 3.0883172208 3.0883172208 3.0883172208 3.0883172208 3.094210889 3.094210889 
3.094210889 3.0883172208 3.0883172208 3.0883172208 3.0883172208 3.0883172208 3.0883172208 3.094210889 3.094210889 
3.094210889 3.0883172208 3.0883172208 3.0883172208 3.0883172208 3.0883172208 3.094210889 3.094210889 3.094210889 
3.0883172208 3.0883172208 3.0883172208 3.0883172208 3.0883172208 3.094210889 3.094210889 3.094210889 3.0883172208 
3.0883172208 3.0883172208 3.0883172208 3.0883172208 3.0883172208 3.094210889 3.094210889 3.094210889 3.094210889 
3.0883172208 3.0883172208 3.0883172208 3.0883172208 3.094210889 3.094210889 3.0883172208 3.0883172208 3.0883172208 
3.0883172208 3.0883172208 3.094210889 3.094210889 3.094210889 3.0883172208 3.0883172208 3.0883172208 3.0883172208 
3.0883172208 3.094210889 3.094210889 3.094210889 3.0883172208 3.0883172208 3.0883172208 3.0883172208 3.0883172208 
3.094210889 3.094210889 3.0883172208 3.0883172208 3.0883172208 3.0883172208 3.0883172208 3.094210889 3.094210889 
3.094210889 3.094210889 3.0883172208 3.0883172208 3.0883172208 3.0883172208 3.0883172208 3.0883172208 3.094210889 
3.094210889 3.094210889 3.0883172208 3.0883172208 3.0883172208 3.0883172208 3.0883172208 3.0883172208 3.094210889 
3.094210889 3.0883172208 3.0883172208 3.0883172208 3.0883172208 3.094210889 3.094210889 3.0883172208 3.0883172208 
3.0883172208 3.0883172208 3.0883172208 3.094210889 3.094210889 3.0883172208 3.0883172208 3.0883172208 3.0883172208 
3.0883172208 3.094210889 3.094210889 3.0883172208 3.0883172208 3.0883172208 3.0883172208 3.0883172208 3.094210889 
3.094210889 3.094210889 3.0883172208 3.0883172208 3.0883172208 3.0883172208 3.0883172208 3.094210889 3.094210889 
3.0883172208 3.0883172208 3.0883172208 3.0883172208 3.0883172208 3.094210889 3.094210889 3.0883172208 3.0883172208 
3.0883172208 3.0883172208 3.0883172208 3.094210889 3.094210889 3.0883172208 3.0883172208 3.0883172208 3.0883172208 
3.094210889 3.094210889 3.094210889 3.0883172208 3.0883172208 3.0883172208 3.0883172208 3.0883172208 3.0883172208 
3.0883172208 3.094210889 3.094210889 3.0883172208 3.0883172208 3.0883172208 3.0883172208 3.0883172208 3.0883172208 
3.094210889 3.094210889 3.094210889 3.0883172208 3.0883172208 3.0883172208 3.0883172208 3.0883172208 3.094210889 
3.094210889 3.0883172208 3.0883172208 3.0883172208 3.0883172208 3.094210889 3.094210889 3.0883172208 3.0883172208 
3.0883172208 3.0883172208 3.0883172208 3.094210889 3.094210889 3.0883172208 3.0883172208 3.0883172208 3.0883172208 
3.0883172208 3.0883172208 3.094210889 3.094210889 3.0883172208 3.0883172208 3.0883172208 3.0883172208 3.094210889 
3.094210889 3.0883172208 3.0883172208 3.0883172208 3.0883172208 3.0883172208 3.0883172208 3.094210889 3.094210889 
3.094210889 3.0883172208 3.0883172208 3.0883172208 3.0883172208 3.0883172208 3.094210889 3.094210889 3.0883172208 
3.0883172208 3.0883172208 3.0883172208 3.0883172208 3.0883172208 3.094210889 3.094210889 3.094210889 3.0883172208 
3.0883172208 3.0883172208 3.0883172208 3.094210889 3.094210889 3.0883172208 3.0883172208 3.0883172208 3.0883172208 
3.0883172208 3.0883172208 3.094210889 3.094210889 3.0883172208 3.0883172208 3.0883172208 3.0883172208 3.0883172208 
3.094210889 3.094210889 3.0883172208 3.0883172208 3.0883172208 3.0883172208 3.0883172208 3.094210889 3.094210889 
3.094210889 3.0883172208 3.0883172208 3.0883172208 3.0883172208 3.0883172208 3.094210889 3.094210889 3.094210889 
3.0883172208 3.0883172208 3.0883172208 3.0883172208 3.0883172208 3.0883172208 3.094210889 3.094210889 3.0883172208 
3.0883172208 3.0883172208 3.0883172208 3.094210889 3.094210889 3.0883172208 3.0883172208 3.0883172208 3.0883172208 
3.0883172208 3.0883172208 3.094210889 3.094210889 3.094210889 3.0883172208 3.0883172208 3.0883172208 3.0883172208 
3.094210889 3.094210889 3.0883172208 3.0883172208 3.0883172208 3.0883172208 3.094210889 3.094210889 3.0883172208 
3.0883172208 3.0883172208 3.0883172208 3.0883172208 3.0883172208 3.094210889 3.094210889 3.1001045572 3.1001045572 
3.1001045572 3.1001045572 3.1001045572 3.1001045572 3.1001045572 3.094210889 3.094210889 3.0883172208 3.0883172208 
3.0883172208 3.0883172208 3.094210889 3.1001045572 3.1001045572 3.1001045572 3.1001045572 3.1001045572 3.1001045572 
3.1001045572 3.094210889 3.0883172208 3.0883172208 3.0883172208 3.0883172208 3.094210889 3.1001045572 3.1001045572 
3.1001045572 3.1001045572 3.1001045572 3.1001045572 3.094210889 3.0883172208 3.0883172208 3.0883172208 3.0883172208 
3.0883172208 3.0824235526 3.0824235526 3.0824235526 3.0824235526 3.0883172208 3.094210889 3.1001045572 3.1001045572 
3.1001045572 3.1001045572 3.094210889 3.094210889 3.0883172208 3.0883172208 3.0883172208 3.0824235526 3.0824235526 
3.0824235526 3.0824235526 3.0824235526 3.0824235526 3.0824235526 3.0883172208 3.094210889 3.1001045572 3.1001045572 
3.1001045572 3.094210889 3.0883172208 3.0883172208 3.0883172208 3.0824235526 3.0824235526 3.0824235526 3.0824235526 
3.0824235526 3.0824235526 3.0883172208 3.094210889 3.1001045572 3.1001045572 3.1001045572 3.1001045572 3.094210889 
3.0883172208 3.0883172208 3.0883172208 3.0883172208 3.0883172208 3.0824235526 3.0824235526 3.0824235526 3.0824235526 
3.0824235526 3.0824235526 3.0883172208 3.094210889 3.1001045572 3.1001045572 3.094210889 3.0883172208 3.0883172208 
3.0883172208 3.0824235526 3.0824235526 3.0824235526 3.0824235526 3.0883172208 3.094210889 3.1001045572 3.1001045572 
3.1001045572 3.094210889 3.0883172208 3.0883172208 3.0883172208 3.0824235526 3.0824235526 3.0824235526 3.0824235526 
3.0883172208 3.094210889 3.1001045572 3.1001045572 3.1001045572 3.1001045572 3.094210889 3.0883172208 3.0883172208 
3.0883172208 3.0883172208 3.0883172208 3.0824235526 3.0824235526 3.0824235526 3.0824235526 3.0883172208 3.094210889 
3.1001045572 3.1001045572 3.1001045572 3.094210889 3.0883172208 3.0883172208 3.0883172208 3.0824235526 3.0824235526 
3.0824235526 3.0824235526 3.0883172208 3.094210889 3.1001045572 3.1001045572 3.1001045572 3.094210889 3.0883172208 
3.0883172208 3.0883172208 3.0824235526 3.0824235526 3.0883172208 3.094210889 3.1001045572 3.1001045572 3.1001045572 
3.094210889 3.0883172208 3.0883172208 3.0883172208 3.0883172208 3.0824235526 3.0824235526 3.0883172208 3.094210889 
3.1001045572 3.1001045572 3.094210889 3.094210889 3.0883172208 3.0883172208 3.0883172208 3.0824235526 3.0824235526 
3.0824235526 3.0883172208 3.094210889 3.1001045572 3.1001045572 3.094210889 3.0883172208 3.0883172208 3.0883172208 
3.0883172208 3.0824235526 3.0824235526 3.0824235526 3.0883172208 3.094210889 3.1001045572 3.1001045572 3.1001045572 
3.094210889 3.0883172208 3.0883172208 3.0883172208 3.0883172208 3.0883172208 3.0824235526 3.0824235526 3.0824235526 
3.0883172208 3.094210889 3.1001045572 3.1001045572 3.1001045572 3.094210889 3.0883172208 3.0883172208 3.0883172208 
3.0824235526 3.0824235526 3.0883172208 3.094210889 3.094210889 3.1001045572 3.1001045572 3.094210889 3.0883172208 
3.0883172208 3.0883172208 3.0824235526 3.0824235526 3.0824235526 3.0883172208 3.094210889 3.1001045572 3.1001045572 
3.094210889 3.0883172208 3.0883172208 3.0883172208 3.0883172208 3.0824235526 3.0824235526 3.0824235526 3.0883172208 
3.094210889 3.1001045572 3.1001045572 3.1001045572 3.094210889 3.0883172208 3.0883172208 3.0883172208 3.0824235526 
3.0824235526 3.0883172208 3.094210889 3.1001045572 3.1001045572 3.1001045572 3.094210889 3.0883172208 3.0883172208 
3.0883172208 3.0824235526 3.0824235526 3.0883172208 3.094210889 3.1001045572 3.1001045572 3.094210889 3.0883172208 
3.0883172208 3.0883172208 3.0883172208 3.0883172208 3.0824235526 3.0824235526 3.0824235526 3.0824235526 3.0883172208 
3.094210889 3.1001045572 3.1001045572 3.094210889 3.0883172208 3.0883172208 3.0883172208 3.0824235526 3.0824235526 
3.0883172208 3.094210889 3.1001045572 3.1001045572 3.094210889 3.0883172208 3.0883172208 3.0883172208 3.0883172208 
3.0824235526 3.0824235526 3.0824235526 3.0883172208 3.094210889 3.1001045572 3.1001045572 3.1001045572 3.1001045572 
3.094210889 3.0883172208 3.0883172208 3.0883172208 3.0824235526 3.0824235526 3.0824235526 3.0883172208 3.094210889 
3.1001045572 3.1001045572 3.094210889 3.0883172208 3.0883172208 3.0883172208 3.0883172208 3.0824235526 3.0824235526 
3.0883172208 3.094210889 3.094210889 3.1001045572 3.1001045572 3.094210889 3.0883172208 3.0883172208 3.0883172208 
3.0824235526 3.0824235526 3.0824235526 3.0883172208 3.094210889 3.1001045572 3.1001045572 3.094210889 3.0883172208 
3.0883172208 3.0883172208 3.0883172208 3.0883172208 3.0824235526 3.0824235526 3.0883172208 3.094210889 3.1001045572 
3.1059982254 3.1059982254 3.1059982254 3.1059982254 3.1059982254 3.1059982254 3.1059982254 3.1059982254 3.1059982254 
3.1059982254 3.1001045572 3.094210889 3.0883172208 3.0883172208 3.0883172208 3.0883172208 3.0883172208 3.0824235526 
3.0824235526 3.0824235526 3.0824235526 3.0883172208 3.094210889 3.1001045572 3.1059982254 3.1059982254 3.1059982254 
3.1059982254 3.1059982254 3.1001045572 3.1001045572 3.094210889 3.0883172208 3.0883172208 3.0883172208 3.0824235526 
3.0824235526 3.0883172208 3.094210889 3.1001045572 3.1059982254 3.1059982254 3.1059982254 3.1001045572 3.094210889 
3.0883172208 3.0883172208 3.0883172208 3.0883172208 3.0824235526 3.0824235526 3.0883172208 3.094210889 3.1001045572 
3.1001045572 3.1059982254 3.1059982254 3.1059982254 3.1001045572 3.094210889 3.0883172208 3.0883172208 3.0883172208 
3.0883172208 3.0824235526 3.0824235526 3.0824235526 3.0883172208 3.094210889 3.1001045572 3.1059982254 3.1059982254 
3.1059982254 3.1001045572 3.094210889 3.0883172208 3.0883172208 3.0883172208 3.0883172208 3.0824235526 3.0824235526 
3.0824235526 3.0883172208 3.094210889 3.1001045572 3.1059982254 3.1059982254 3.1059982254 3.1001045572 3.094210889 
3.0883172208 3.0883172208 3.0883172208 3.0883172208 3.0883172208 3.0824235526 3.0824235526 3.0883172208 3.094210889 
3.1001045572 3.1059982254 3.1059982254 3.1001045572 3.094210889 3.0883172208 3.0883172208 3.0883172208 3.0824235526 
3.0824235526 3.0824235526 3.0883172208 3.094210889 3.094210889 3.1001045572 3.1059982254 3.1059982254 3.1059982254 
3.1059982254 3.1001045572 3.1001045572 3.094210889 3.0883172208 3.0883172208 3.0883172208 3.0883172208 3.0824235526 
3.0824235526 3.0883172208 3.094210889 3.1001045572 3.1001045572 3.1059982254 3.1059982254 3.1059982254 3.1001045572 
3.094210889 3.0883172208 3.0883172208 3.0883172208 3.0883172208 3.0883172208 3.0824235526 3.0824235526 3.0824235526 
3.0883172208 3.094210889 3.1001045572 3.1059982254 3.1059982254 3.1059982254 3.1001045572 3.094210889 3.0883172208 
3.0883172208 3.0883172208 3.0824235526 3.0824235526 3.0824235526 3.0883172208 3.094210889 3.1001045572 3.1059982254 
3.1059982254 3.1001045572 3.094210889 3.0883172208 3.0883172208 3.0883172208 3.0883172208 3.0824235526 3.0824235526 
3.0883172208 3.094210889 3.1001045572 3.1059982254 3.1059982254 3.1059982254 3.1001045572 3.094210889 3.0883172208 
3.0883172208 3.0883172208 3.0883172208 3.0824235526 3.0824235526 3.0883172208 3.094210889 3.1001045572 3.1001045572 
3.1059982254 3.1059982254 3.1059982254 3.1001045572 3.094210889 3.0883172208 3.0883172208 3.0883172208 3.0883172208 
3.0824235526 3.0824235526 3.0824235526 3.0824235526 3.0883172208 3.094210889 3.1001045572 3.1059982254 3.1059982254 
3.1001045572 3.094210889 3.0883172208 3.0883172208 3.0883172208 3.0883172208 3.0824235526 3.0824235526 3.0883172208 
3.094210889 3.1001045572 3.1059982254 3.1059982254 3.1059982254 3.1001045572 3.094210889 3.0883172208 3.0883172208 
3.0883172208 3.0824235526 3.0824235526 3.0883172208 3.094210889 3.1001045572 3.1059982254 3.1059982254 3.1059982254 
3.1001045572 3.094210889 3.0883172208 3.0883172208 3.0883172208 3.0883172208 3.0824235526 3.0824235526 3.0883172208 
3.094210889 3.1001045572 3.1001045572 3.1059982254 3.1059982254 3.1001045572 3.094210889 3.0883172208 3.0883172208 
3.0883172208 3.0883172208 3.0824235526 3.0824235526 3.0883172208 3.094210889 3.1001045572 3.1059982254 3.1059982254 
3.1059982254 3.1001045572 3.094210889 3.0883172208 3.0883172208 3.0883172208 3.0824235526 3.0765298844 3.0765298844 
3.0765298844 3.0765298844 3.0765298844 3.0765298844 3.0765298844 3.0765298844 3.0765298844 3.0765298844 3.0824235526 
3.0883172208 3.094210889 3.094210889 3.1001045572 3.1059982254 3.1059982254 3.1059982254 3.1001045572 3.094210889 
3.094210889 3.0883172208 3.0883172208 3.0883172208 3.0883172208 3.0824235526 3.0824235526 3.0765298844 3.0765298844 
3.0765298844 3.0765298844 3.0765298844 3.0765298844 3.0765298844 3.0765298844 3.0765298844 3.0824235526 3.0883172208 
3.094210889 3.1001045572 3.1059982254 3.1059982254 3.1118918936 3.1118918936 3.1118918936 3.1118918936 3.1118918936 
3.1059982254 3.1001045572 3.1001045572 3.094210889 3.0883172208 3.0883172208 3.0883172208 3.0883172208 3.0824235526 
3.0765298844 3.0765298844 3.0765298844 3.0824235526 3.0883172208 3.094210889 3.1001045572 3.1059982254 3.1118918936 
3.1118918936 3.1118918936 3.1059982254 3.1001045572 3.094210889 3.0883172208 3.0883172208 3.0883172208 3.0883172208 
3.0824235526 3.0765298844 3.0765298844 3.0824235526 3.0883172208 3.0883172208 3.094210889 3.1001045572 3.1001045572 
3.1059982254 3.1118918936 3.1118918936 3.1118918936 3.1118918936 3.1059982254 3.1001045572 3.094210889 3.0883172208 
3.0883172208 3.0883172208 3.0883172208 3.0824235526 3.0765298844 3.0765298844 3.0765298844 3.0765298844 3.0824235526 
3.0883172208 3.094210889 3.1001045572 3.1059982254 3.1118918936 3.1118918936 3.1118918936 3.1059982254 3.1001045572 
3.094210889 3.094210889 3.0883172208 3.0883172208 3.0883172208 3.0824235526 3.0765298844 3.0765298844 3.0824235526 
3.0883172208 3.094210889 3.094210889 3.1001045572 3.1059982254 3.1059982254 3.1118918936 3.1118918936 3.1118918936 
3.1118918936 3.1118918936 3.1059982254 3.1059982254 3.1001045572 3.094210889 3.0883172208 3.0883172208 3.0883172208 
3.0883172208 3.0824235526 3.0765298844 3.0765298844 3.0765298844 3.0824235526 3.0883172208 3.094210889 3.1001045572 
3.1059982254 3.1118918936 3.1118918936 3.1118918936 3.1118918936 3.1059982254 3.1001045572 3.094210889 3.0883172208 
3.0883172208 3.0883172208 3.0824235526 3.0765298844 3.0765298844 3.0765298844 3.0824235526 3.0824235526 3.0883172208 
3.094210889 3.1001045572 3.1001045572 3.1059982254 3.1118918936 3.1118918936 3.1118918936 3.1059982254 3.1001045572 
3.094210889 3.0883172208 3.0883172208 3.0883172208 3.0824235526 3.0765298844 3.0765298844 3.0824235526 3.0883172208 
3.0883172208 3.094210889 3.1001045572 3.1059982254 3.1059982254 3.1118918936 3.1118918936 3.1118918936 3.1059982254 
3.1001045572 3.094210889 3.0883172208 3.0883172208 3.0883172208 3.0883172208 3.0883172208 3.0883172208 3.0824235526 
3.0765298844 3.0765298844 3.0765298844 3.0765298844 3.0824235526 3.0883172208 3.094210889 3.1001045572 3.1059982254 
3.1118918936 3.1118918936 3.1118918936 3.1118918936 3.1059982254 3.1059982254 3.1001045572 3.094210889 3.0883172208 
3.0883172208 3.0883172208 3.0824235526 3.0824235526 3.0765298844 3.0765298844 3.0824235526 3.0883172208 3.094210889 
3.1001045572 3.1059982254 3.1118918936 3.1118918936 3.1059982254 3.1001045572 3.094210889 3.0883172208 3.0824235526 
3.0824235526 3.0824235526 3.0824235526 3.0883172208 3.0883172208 3.0824235526 3.0765298844 3.0765298844 3.0765298844 
3.0824235526 3.0883172208 3.094210889 3.1001045572 3.1001045572 3.1059982254 3.1118918936 3.1118918936 3.1118918936 
3.1118918936 3.1059982254 3.1001045572 3.094210889 3.0883172208 3.0824235526 3.0824235526 3.0824235526 3.0824235526 
3.0883172208 3.0883172208 3.0824235526 3.0765298844 3.0765298844 3.0765298844 3.0824235526 3.0883172208 3.094210889 
3.1001045572 3.1059982254 3.1059982254 3.1118918936 3.1118918936 3.1118918936 3.1059982254 3.1001045572 3.094210889 
3.0883172208 3.0824235526 3.0824235526 3.0824235526 3.0824235526 3.0824235526 3.0824235526 3.0883172208 3.0883172208 