# vtk DataFile Version 4.2
vtk output
ASCII
DATASET UNSTRUCTURED_GRID
POINTS 1740 double
2144.07 -94.44003 0 2911 0 0 16.54298 -37.82236 0 
5.09149 -21.30132 0 1.27433 -10.75385 0 0 0 0 
2.54575 15.14293 0 6.36291 23.76126 0 14.00014 34.89063 0 
30.50239 50.70793 0 33.39435 -52.93479 0 2050.91 -103.7862 0 
60.1465 -69.72165 0 88.83633 -83.2817 0 118.7656 -94.71113 0 
153.4168 -105.7022 0 199.5806 -117.771 0 261.4466 -130.7139 0 
345.846 -144.1892 0 460.3522 -157.0592 0 608.4185 -167.1903 0 
783.2313 -172.4016 0 941.0559 -172.4533 0 1063.409 -170.1096 0 
1164.153 -166.8746 0 1263.449 -162.682 0 1375.468 -156.8941 0 
1513.293 -148.414 0 1665.281 -137.5317 0 1791.864 -127.3721 0 
2195.451 -89.09491 0 2273.924 -80.67077 0 2383.731 -68.3513 0 
2517.64 -52.47337 0 2649.227 -35.9232 0 2740.773 -23.82991 0 
2804.387 -15.13419 0 2848.802 -8.916218 0 2881.944 -4.196067 0 
56.61447 67.79801 0 84.09687 81.25172 0 112.4783 92.48395 0 
142.1748 102.3504 0 174.8563 111.6168 0 213.124 120.8806 0 
260.3759 130.5151 0 324.6539 141.1779 0 418.1422 152.9178 0 
535.6656 162.9871 0 690.9154 170.4255 0 902.6513 172.7852 0 
1100.32 169.0517 0 1270.99 162.3262 0 1462.794 151.6837 0 
1631.287 140.0952 0 1747.993 131 0 1922.788 115.9027 0 
2069.56 101.951 0 2128.804 96.0021 0 2297.147 78.11721 0 
2414.379 64.80104 0 2554.023 47.99319 0 2673.693 32.73885 0 
2757.97 21.50315 0 2814.297 13.7575 0 2852.02 8.460961 0 
2882.272 4.148909 0 1791.052 127.4402 0 1366.894 157.3738 0 
1444.38 -152.8302 0 1547.039 146.1296 0 1589.287 -143.1614 0 
1878.731 119.8675 0 1997.072 108.9828 0 1185.654 166.0472 0 
1882.536 -119.5292 0 1971.323 -111.4145 0 1684.777 136.0292 0 
2099.317 -98.9855 0 2234.809 84.9091 0 2181.695 90.53914 0 
1728.573 -132.5703 0 1718.815 133.3509 0 1834.825 123.7132 0 
1960.305 112.4444 0 2033.69 105.4648 0 2099.184 98.99892 0 
2214.291 -76.007355108 396.8421 2955.512 13.304985415 396.8421 158.0786 -27.073364841 396.8421 
147.0109 -11.223522787 396.8421 143.3217 -1.0864515774 396.8421 142.09 9.2624995325 396.8421 
144.5505 23.85759165 396.8421 148.2398 32.176185513 396.8421 155.621 42.932162268 396.8421 
171.5701 58.246775343 396.8421 174.3652 -41.538807692 396.8421 2124.254 -84.959520813 396.8421 
200.2206 -57.565809409 396.8421 227.9488 -70.476282001 396.8421 256.8748 -81.329831852 396.8421 
290.3647 -91.738848441 396.8421 334.981 -103.13049035 396.8421 394.7733 -115.29152775 396.8421 
476.3434 -127.86693017 396.8421 587.0114 -139.74063362 396.8421 730.1145 -148.86937189 396.8421 
899.0676 -153.21723255 396.8421 1051.602 -152.73111908 396.8421 1169.853 -150.10644465 396.8421 
1267.221 -146.72074698 396.8421 1363.188 -142.44622474 396.8421 1471.452 -136.64075803 396.8421 
1604.657 -128.24302809 396.8421 1751.55 -117.57857989 396.8421 1873.891 -107.69894084 396.8421 
2263.949 -70.899947747 396.8421 2339.792 -62.867048603 396.8421 2445.918 -51.152930054 396.8421 
2575.338 -36.106279674 396.8421 2702.515 -20.475214818 396.8421 2790.992 -9.0828194194 396.8421 
2852.473 -0.90457732194 396.8421 2895.4 4.9370022382 396.8421 2927.431 9.3681274174 396.8421 
196.807 74.834037545 396.8421 223.3682 87.924696887 396.8421 250.7983 98.878947598 396.8421 
279.4994 108.52261527 396.8421 311.0855 117.60090859 396.8421 348.0705 126.7006394 396.8421 
393.7383 136.19581174 396.8421 455.8617 146.75313103 396.8421 546.2162 158.46592053 396.8421 
659.8003 168.65220553 396.8421 809.846 176.42235853 396.8421 1014.485 179.44303803 396.8421 
1205.528 176.45489259 396.8421 1370.477 170.42395223 396.8421 1555.851 160.58050703 396.8421 
1718.696 149.68564052 396.8421 1831.49 141.05704648 396.8421 2000.426 126.62569534 396.8421 
2142.278 113.19451608 396.8421 2199.537 107.44427903 396.8421 2362.236 90.083796579 396.8421 
2475.539 77.095281963 396.8421 2610.501 60.634812538 396.8421 2726.16 45.639494212 396.8421 
2807.613 34.564222754 396.8421 2862.05 26.915503284 396.8421 2898.509 21.679226691 396.8421 
2927.749 17.412792418 396.8421 1873.106 137.66536744 396.8421 1463.165 165.87063996 396.8421 
1538.054 -132.60408969 396.8421 1637.272 155.37540276 396.8421 1678.104 -123.08301416 396.8421 
1957.846 130.42697057 396.8421 2072.22 119.97418227 396.8421 1288 173.79396084 396.8421 
1961.524 -100.11077154 396.8421 2047.334 -92.288877634 396.8421 1770.393 145.83537795 396.8421 
2171.038 -80.357671572 396.8421 2301.989 96.688661283 396.8421 2250.655 102.15263443 396.8421 
1812.721 -112.74605829 396.8421 1803.29 143.29265353 396.8421 1915.411 134.10660328 396.8421 
2036.686 123.30404624 396.8421 2107.61 116.5847668 396.8421 2170.909 110.34267512 396.8421 
2284.511 -60.493418495 793.6842 3000.027 24.646130511 793.6842 299.6143 -18.196574753 793.6842 
288.9304 -2.9904535504 793.6842 285.3691 6.7490739063 793.6842 284.1801 16.702728547 793.6842 
286.5551 30.757711781 793.6842 290.1167 38.777858506 793.6842 297.2417 49.158511678 793.6842 
312.6379 63.960518499 793.6842 315.336 -32.048624139 793.6842 2197.597 -69.113514431 793.6842 
340.2947 -47.36367732 793.6842 367.0612 -59.672383887 793.6842 394.9839 -69.997489008 793.6842 
427.3123 -79.877090017 793.6842 470.3812 -90.658848725 793.6842 528.0998 -102.12372432 793.6842 
606.8411 -113.90899766 793.6842 713.6708 -124.92333962 793.6842 851.8104 -133.20682423 793.6842 
1014.904 -136.84845313 793.6842 1162.147 -135.94013037 793.6842 1276.298 -133.10640718 793.6842 
1370.288 -129.61750192 793.6842 1462.927 -125.29720494 793.6842 1567.436 -119.50247185 793.6842 
1696.021 -111.20259164 793.6842 1837.82 -100.74826436 793.6842 1955.917 -91.121665288 793.6842 
2332.447 -55.584818334 793.6842 2405.659 -47.877088997 793.6842 2508.105 -36.66221896 793.6842 
2633.037 -22.29534172 793.6842 2755.801 -7.4101275214 793.6842 2841.209 3.4164764768 793.6842 
2900.561 11.178288645 793.6842 2941.997 16.71763034 793.6842 2972.917 20.916960025 793.6842 
336.9995 80.023767703 793.6842 362.6396 92.726299839 793.6842 389.1182 103.37514527 793.6842 
416.8239 112.76656103 793.6842 447.3145 121.62368526 793.6842 483.0167 130.52019047 793.6842 
527.1009 139.82740013 793.6842 587.0697 150.21333713 793.6842 674.2905 161.80477482 793.6842 
783.9349 171.99362909 793.6842 928.7766 179.95337982 793.6842 1126.317 183.46310089 793.6842 
1310.735 181.08757869 793.6842 1469.963 175.66190398 793.6842 1648.908 166.54894645 793.6842 
1806.105 156.31886933 793.6842 1914.987 148.15514189 793.6842 2078.064 134.41767123 793.6842 
2214.996 121.56048577 793.6842 2270.269 116.03857929 793.6842 2427.326 99.313597643 793.6842 
2536.699 86.754420981 793.6842 2666.98 70.789799291 793.6842 2778.628 56.205260814 793.6842 
2857.255 45.41129063 793.6842 2909.806 37.9469078 793.6842 2945.001 32.832469409 793.6842 
2973.224 28.662821883 793.6842 1955.16 144.93490278 793.6842 1559.437 171.46892866 793.6842 
1631.729 -115.50336996 793.6842 1727.505 161.67460637 793.6842 1766.921 -106.13460849 793.6842 
2036.96 138.04472092 793.6842 2147.368 128.05794196 793.6842 1390.347 178.72242023 793.6842 
2040.511 -83.757111403 793.6842 2123.346 -76.188063775 793.6842 1856.009 152.68154755 793.6842 
2242.759 -64.679644253 793.6842 2369.167 105.68558275 793.6842 2319.614 110.94879753 793.6842 
1896.869 -96.033620786 793.6842 1887.765 150.2744886 793.6842 1995.998 141.55023997 793.6842 
2113.066 131.24374762 793.6842 2181.531 124.81145441 793.6842 2242.634 118.82308516 793.6842 
2354.732 -47.436973122 1190.526 3044.539 34.160529619 1190.526 441.15 -10.756904253 1190.526 
430.8497 3.8291041598 1190.526 427.4164 13.182423459 1190.526 426.2701 22.749559903 1190.526 
428.5601 36.272171999 1190.526 431.9934 43.995770711 1190.526 438.8627 54.000763825 1190.526 
453.7057 68.28384457 1190.526 456.3069 -24.02404897 1190.526 2270.94 -55.761010747 1190.526 
480.3688 -38.667253261 1190.526 506.1737 -50.413967648 1190.526 533.0934 -60.250019493 1190.526 
564.26 -69.64390988 1190.526 605.7815 -79.871541443 1190.526 661.4265 -90.711306517 1190.526 
737.3385 -101.79800153 1190.526 840.33 -112.06765297 1190.526 973.5064 -119.63936562 1190.526 
1130.74 -122.7113666 1190.526 1272.693 -121.4840982 1190.526 1382.742 -118.50836732 1190.526 
1473.356 -114.96279545 1190.526 1562.666 -110.63465901 1190.526 1663.42 -104.88372454 1190.526 
1787.385 -96.708564959 1190.526 1924.09 -86.475300647 1190.526 2037.944 -77.09565933 1190.526 
2400.946 -42.703711773 1190.526 2471.527 -35.28043034 1190.526 2570.292 -24.497473177 1190.526 
2690.735 -10.711651597 1190.526 2809.091 3.542922277 1190.526 2891.43 13.894910133 1190.526 
2948.647 21.309065443 1190.526 2988.597 26.59680012 1190.526 3018.403 30.603605506 1190.526 
477.1918 83.8079358 1190.526 501.9109 96.103599567 1190.526 527.4382 106.42621268 1190.526 
554.1485 115.54257384 1190.526 583.5435 124.1527001 1190.526 617.963 132.81536706 1190.526 
660.4633 141.89620658 1190.526 718.2775 152.05817904 1190.526 802.3645 163.45210255 1190.526 
908.0698 173.54937064 1190.526 1047.707 181.5792896 1190.526 1238.151 185.42868952 1190.526 
1415.942 183.54454886 1190.526 1569.449 178.63669685 1190.526 1741.965 170.17853621 1190.526 
1893.514 160.56874219 1190.526 1998.484 152.85236884 1190.526 2155.702 139.80466242 1190.526 
2287.714 127.53994504 1190.526 2341.001 122.25985164 1190.526 2492.415 106.22854673 1190.526 
2597.858 94.157408346 1190.526 2723.46 78.778921737 1190.526 2831.095 64.701008769 1190.526 
2906.899 54.266450359 1190.526 2957.56 47.043674521 1190.526 2991.49 42.091700662 1190.526 
3018.699 38.052752523 1190.526 2037.214 149.80012808 1190.526 1655.708 174.763103 1190.526 
1725.403 -100.93755121 1190.526 1817.738 165.60997579 1190.526 1855.738 -91.740553905 1190.526 
2116.075 143.25602135 1190.526 2222.516 133.74348608 1190.526 1492.694 181.42931508 1190.526 
2119.498 -69.941528502 1190.526 2199.357 -62.605060014 1190.526 1941.625 157.13482701 1190.526 
2314.479 -51.477449372 1190.526 2436.346 112.3426322 1190.526 2388.573 117.38705551 1190.526 
1981.017 -81.877109907 1190.526 1972.24 154.85866398 1190.526 2076.584 146.58753449 1190.526 
[...]
POINT_DATA 1740
FIELD FieldData 1
Pressure 1 1740 double
3.1046763943 3.0187078028 3.009347179 2.9859185552 2.9780656535 2.9572679388 2.9706353146 2.9880469289 3.0191931424 
3.0328374159 3.0105295083 3.1085383151 3.0339002116 3.0483891984 3.0655039872 3.0643151943 3.081747813 3.0870079286 
3.107849317 3.1127480522 3.1313557461 3.1397196668 3.1419114281 3.1475500892 3.1427479614 3.1385854313 3.1351693003 
3.1315564897 3.124863614 3.1193223824 3.1020222747 3.0986844649 3.0930265114 3.0850325654 3.0741269951 3.064171459 
3.0541019036 3.0455940347 3.0368197463 3.0689906243 3.0810912928 3.0939849064 3.107168521 3.1132569465 3.1203813681 
3.127645102 3.135574872 3.1513891826 3.1640457358 3.1810173215 3.1921421132 3.1985922739 3.2046592615 3.2102837857 
3.2141077286 3.2168803049 3.2177090023 3.1238488203 3.1009489429 3.0883477259 3.0819481627 3.0727408182 3.0629453153 
3.0526474697 3.0421654835 3.0347157311 3.0331490922 3.2167522726 3.2080551972 3.1340344124 3.2114345531 3.1282176661 
3.2172496388 3.2182374091 3.2052029648 3.1155070563 3.1119045038 3.2149934383 3.1065467896 3.0928964431 3.0957207262 
3.1219663443 3.2165492299 3.2172856878 3.2184258762 3.2323389471 3.1017382403 3.1016068921 3.0236933673 3.0270939603 
3.0006195689 3.007907237 2.9858680915 2.9948892182 3.0070428626 3.034775333 3.0532706981 3.035214626 3.1059043567 
3.0553373062 3.067841403 3.0813519227 3.0852435875 3.1007117238 3.1100335168 3.1233416776 3.1283119526 3.1386643673 
3.1428739869 3.1464240212 3.1466108487 3.1421047327 3.1373795044 3.1320695669 3.1277038818 3.1217908354 3.1164804975 
3.0992485458 3.0952638644 3.0895677445 3.0817664872 3.0708359465 3.0608583131 3.0511232128 3.0436608593 3.02780406 
3.086246467 3.1069649204 3.1192296646 3.1276764142 3.1367222426 3.1413379234 3.1468733251 3.1571806988 3.1690971031 
3.1781027624 3.1876409183 3.1955320942 3.2018724163 3.2082315349 3.2114859887 3.2140853966 3.2167282276 3.2190731996 
3.0938074078 3.0984483917 3.0911169348 3.0850281645 3.0765262716 3.0658945727 3.0557265202 3.0455521665 3.0390253456 
3.0398352032 3.2173788725 3.2099142895 3.1308412104 3.2136937129 3.1244941856 3.2184958521 3.2146855241 3.2067002145 
3.1125958179 3.1089678348 3.2153227987 3.1039862404 3.0944356342 3.0968621915 3.119357331 3.2160722121 3.2174123936 
3.2201558747 3.1485154817 3.0973198657 3.0994911042 3.0237730495 3.0279666621 3.0006049655 3.0023805391 2.9844102512 
2.9972699977 3.0106981922 3.0391778328 3.0605198589 3.0435478194 3.1035965597 3.0583355854 3.0774150328 3.0955600418 
3.1018938211 3.1146739855 3.1227574958 3.1355528667 3.141489869 3.1484480459 3.1507259359 3.1499640443 3.1480774511 
3.1418074181 3.1360158334 3.1306603024 3.1250307768 3.1196058402 3.1144989398 3.0971803707 3.0933707184 3.0875881414 
3.0798559309 3.0688821778 3.0587614741 3.0495960411 3.042438526 3.0285949774 3.0931978101 3.114938849 3.1335992193 
3.1425740544 3.1534761478 3.161825181 3.1716497568 3.1760232472 3.1844351055 3.1943105737 3.1997712592 3.2053792202 
3.2079408992 3.2144833498 3.2168990952 3.217478499 3.2194304633 3.2219490339 3.0949444326 3.0940340971 3.0908064094 
3.0855272129 3.0776414692 3.0669491397 3.0570549404 3.047322544 3.0400679971 3.0416270565 3.2198799428 3.2158330628 
3.1283443893 3.2175619431 3.1222286561 3.2206277533 3.1329226997 3.2119261315 3.1106245744 3.106835837 3.2180382573 
3.1018533823 3.0933913732 3.0945464595 3.1170856045 3.2184633121 3.2202004563 3.221992748 3.0920816525 3.0950028019 
3.0979185268 3.0238172998 3.0288208482 3.0006926032 3.0029544351 2.9825710517 2.9926198926 3.006925703 3.0398050716 
3.0613171353 3.0435023001 3.1020219184 3.0637223488 3.0812357844 3.1004828929 3.1089858249 3.1214695725 3.1294452397 
3.1420656374 3.1491098783 3.1550083923 3.1556838933 3.1533168998 3.1492644637 3.1419113025 3.1358040012 3.1299255713 
3.1240200225 3.1179770902 3.1128553603 3.0956707443 3.091918062 3.0864267109 3.0787346497 3.0680610978 3.0579876323 
3.0492562875 3.0420678964 3.0292195143 3.0970472643 3.1203495637 3.1358386184 3.1480474968 3.1553875543 3.1664173486 
3.1787217745 3.1887006352 3.1964562608 3.206307593 3.2117373135 3.2160669876 3.2170409526 3.2224872456 3.2242615038 
3.224044158 3.2251961321 3.2283606924 3.0919534988 3.093022293 3.0899629499 3.0846610417 3.0766115171 3.0664172294 
3.0567011653 3.0472851384 3.0397874703 3.0414715764 3.2252711412 3.2235608694 3.1274528532 3.2246241364 3.1208675104 
3.2256183142 3.0851189302 3.2202555183 3.1091218928 3.1052114576 3.2244302115 3.1001402326 3.0921606491 3.0929888734 
3.1153075566 3.2244575859 3.2254274476 3.1124022231 3.0903902985 3.0927959339 3.0969006938 3.023426362 3.0308615186 
3.0014617948 3.0082633308 2.9869287865 2.994381384 3.0078816372 3.0419627714 3.0626268165 3.0450536071 3.1008578433 
3.0665362419 3.0839602334 3.1011917742 3.1108088262 3.1237025932 3.1339858935 3.144904881 3.1525526202 3.1589270054 
3.1583340559 3.1544821893 3.1489634314 3.1410331652 3.1346467393 3.128577045 3.1228259319 3.1168802045 3.1114700607 
3.0946109257 3.090792877 3.0855071559 3.0778623741 3.0674910636 3.0576358603 3.0491465968 3.0418342679 3.029813748 
3.0985651037 3.1222762945 3.1373344013 3.1503940509 3.1594901743 3.1706742388 3.1820262395 3.1877623725 3.1987976943 
3.2114167059 3.2201082743 3.2240327415 3.2255798288 3.2302409756 3.2315193591 3.2309042098 3.2316610615 3.1191621265 
3.0895922178 3.0896894527 3.0874559902 3.0822458246 3.0744025612 3.06471233 3.0552614405 3.0461304811 3.0387051188 
3.0406723584 3.2318425477 3.2315008822 3.1262743257 3.2315829972 3.1197348873 3.2315477289 3.0884101118 3.2284896285 
3.1078089009 3.1039655891 3.2311786977 3.0988694698 3.0894496418 3.0895988467 3.114085938 3.2312506442 3.231917771 
3.0876324693 3.0894393649 3.0899055846 3.0958173502 3.0231707056 3.0319047179 3.0026334506 3.0098790001 2.9878802737 
2.9956917754 3.0092693689 3.0429207425 3.0644707602 3.0462645262 3.0998191284 3.0680803431 3.086231489 3.1025768148 
3.112673817 3.1256086093 3.1366773298 3.1479082273 3.1557825051 3.1622300481 3.1604924081 3.1551584118 3.1481606148 
3.1399579884 3.1334805642 3.1273252093 3.1216378283 3.1156985918 3.1103208023 3.093554626 3.0897878063 3.0846390784 
3.0770809901 3.0668998051 3.0571537562 3.0488385574 3.0414741103 3.030140294 3.1000255314 3.1240871071 3.1392078036 
3.1522572516 3.161308125 3.1730437094 3.1856337827 3.1928050099 3.2040479883 3.2161094038 3.2264443026 3.2314825625 
3.2335495794 3.2389849191 3.2396827195 3.2384477322 3.2384921754 3.0820019035 3.0888833038 3.0880910527 3.0855545833 
3.0808435023 3.0735622588 3.063990618 3.0546208378 3.0459034598 3.0384419097 3.0404555022 3.2385530942 3.2393374648 
3.1250893027 3.2392585584 3.1185730827 3.244808951 3.0884618886 3.2363956347 3.1066504548 3.1029151787 3.23816098 
3.0977840758 3.0874284106 3.0877871769 3.1129334786 3.238232395 3.2388684619 3.0870158466 3.0885033643 3.0885708307 
3.0950818094 3.0233547059 3.032278617 3.0026817305 3.0093102076 2.9875156609 2.9955178709 3.0093672927 3.0430000148 
3.0648644914 3.0472222222 3.0990353346 3.0691125068 3.0875926066 3.1038377771 3.1142879134 3.1272992642 3.1388527442 
3.1501281941 3.1581238122 3.1648070844 3.1621062796 3.155534941 3.1473730472 3.1392322886 3.1327077085 3.1266188531 
3.120691382 3.1148370392 3.1094918385 3.0928424837 3.0890993718 3.0839981812 3.076540358 3.0664513465 3.0567406361 
3.0485166616 3.0411434322 3.0301943477 3.1004921447 3.1248272096 3.1402159719 3.1533443076 3.1627410459 3.1745828725 
3.1870604435 3.194987765 3.2066731623 3.21979744 3.2309210761 3.2374920401 3.2406860657 3.246550432 3.2480201521 
3.2468171023 3.2462317642 3.0861174941 3.0891948178 3.0883853989 3.0864079162 3.0816758059 3.0744311278 3.0647216614 
3.0554293972 3.0467230124 3.0392258653 3.0413934488 3.246027614 3.2475076902 3.1242203799 3.2478378066 3.1176940658 
3.2309112047 3.0877841611 3.2438634181 3.1058016322 3.1020739626 3.2462522995 3.0970773661 3.0881598964 3.0887981725 
3.1120454475 3.2459434042 3.2478630344 3.0891464082 3.0880561664 3.0892457077 3.0946278217 3.0234187651 3.0325464641 
3.002762311 3.0091767196 2.9876540633 2.9954344565 3.0093304395 3.0430519187 3.0649319054 3.0478910097 3.0985793727 
3.0698312643 3.0884374414 3.10458657 3.1153296691 3.1284134608 3.1404019249 3.1515462833 3.1596771771 3.1665941458 
3.163141908 3.1555167484 3.146644843 3.1387425697 3.1321936496 3.1261785644 3.1199526193 3.1142391851 3.1089220243 
3.0923870788 3.0887075591 3.0836576539 3.0762544392 3.0662198381 3.0565200716 3.0483342623 3.0409402557 3.0302670161 
3.1006235274 3.1251751217 3.1407248635 3.1539375717 3.1634590274 3.1754166918 3.1879179389 3.1964836583 3.2084655657 
3.2219577135 3.2337399581 3.2417269054 3.2462921582 3.2528700684 3.2550197275 3.2546136414 3.2539885158 3.0867449063 
3.0890013812 3.0878833164 3.0855948184 3.0810355411 3.0740295187 3.0646737079 3.0557413444 3.0470921689 3.0395764118 
3.042113205 3.2537590662 3.2548016558 3.1235894918 3.2549953294 3.117051452 3.2054061242 3.0857786643 3.249845311 
3.1052538153 3.1016114848 3.2541799245 3.0965728885 3.0873714052 3.0878087144 3.1114736579 3.2537653626 3.2565704019 
3.0901787876 3.0873464018 3.0895596522 3.0943640834 3.0233065431 3.0327534732 3.0028894312 3.0092007136 2.9878313228 
2.9956257824 3.0095401665 3.0432192328 3.0651426347 3.0483456204 3.0983688961 3.0703460808 3.0889615449 3.1050668356 
3.1160453078 3.1291846502 3.1414934624 3.1526032826 3.160841706 3.1679525783 3.1639043992 3.1554243196 3.1461760317 
3.1385007386 3.1318884819 3.1259414994 3.1194584413 3.1139420214 3.1086478648 3.0921629167 3.0885348096 3.083512057 
3.0761484531 3.0661590758 3.0564147084 3.0482485787 3.0408479892 3.0303877037 3.1008265549 3.1255051765 3.1411683939 
3.1544414405 3.1640682345 3.1761119067 3.1885631175 3.1975231746 3.2098162688 3.2235836023 3.2357225409 3.2449204895 
3.2503268345 3.2577522181 3.261463821 3.2609524879 3.2609866574 3.083237231 3.0873849091 3.0859774651 3.0834366019 
3.0793024361 3.0726361505 3.0635625378 3.0549088389 3.0465365121 3.0390286046 3.042067907 3.2615323612 3.259850476 
3.1231686068 3.2613041992 3.1166807678 3.2006100707 3.0841163806 3.2542106184 3.1049887798 3.1013979492 3.2608674418 
3.0963518968 3.0849542304 3.0855106904 3.1112071739 3.2606605767 3.2674648066 3.0887908098 3.0850215809 3.088393173 
3.094287802 3.0232973853 3.0329449737 3.0030246537 3.0092507078 2.9879188359 2.9958883635 3.0098281018 3.0433677505 
3.0653835463 3.048580588 3.0982258914 3.0706467654 3.0894099876 3.1053895963 3.1165659338 3.1297090248 3.1422543479 
3.1533688035 3.161688092 3.1690624693 3.1645834119 3.1554894932 3.1460857832 3.1385618693 3.1318188327 3.125947312 
3.1193381677 3.113906583 3.1086132515 3.0921058347 3.0885118355 3.0835039428 3.0761539985 3.0661892534 3.0564130772 
3.0482448318 3.0408536579 3.0303854015 3.1010670471 3.1258616164 3.1416171049 3.1549330261 3.1646736411 3.1767701393 
3.1892141143 3.1984366558 3.2109999812 3.2249600363 3.237361424 3.2470832076 3.2532322766 3.2612922076 3.2653591112 
3.2663932134 3.2667885994 3.0822236136 3.0863661032 3.0852666497 3.0822766896 3.0783585249 3.0718359523 3.0626942774 
3.0541039178 3.0459081039 3.0384501134 3.0416391288 3.2670262814 3.2638493879 3.1231028155 3.2662204893 3.1166132466 
3.2074793914 3.0834219362 3.2573938708 3.104976807 3.1014191955 3.2663475257 3.0962658769 3.0839828678 3.0847296072 
3.1111744915 3.2663875054 3.2677040795 3.0909163014 3.0857570012 3.0874414459 3.094297962 3.0232102658 3.0331383701 
3.003196388 3.009399949 2.9879768303 2.9962244559 3.0101289063 3.0436131767 3.0656684199 3.0486942391 3.0982003234 
3.0707616491 3.0895489638 3.1055690224 3.1169171304 3.1300182383 3.1427730439 3.153887058 3.162350569 3.1699840563 
3.1652492606 3.1557824584 3.1462427153 3.1388128933 3.1319886424 3.1261466796 3.1194627965 3.1141365988 3.108766076 
3.0921579712 3.088592914 3.083585298 3.0762410826 3.0662816889 3.0564847313 3.0482956151 3.0409239779 3.0302407324 
3.1013875754 3.1262630073 3.1421025986 3.1554736446 3.1653046942 3.1774451253 3.189904953 3.1993181084 3.2121370397 
3.2261971564 3.2388575795 3.2488628332 3.2553615106 3.263916643 3.2684756399 3.2699573425 3.2707329582 3.0895859421 
3.0847407868 3.0846156568 3.0812314937 3.0770884502 3.0704609829 3.0614088269 3.0529739089 3.0447647294 3.0375170569 
3.0406015533 3.2712637315 3.2666574881 3.1232396872 3.2696248508 3.1167475931 3.2539003623 3.0863457219 3.2596831845 
3.1051144738 3.1014586529 3.2703256921 3.0962149151 3.0830392212 3.0837670801 3.1113733785 3.2704048259 3.2716826779 
3.0973813805 3.0845445143 3.0855077476 3.0944927971 3.0227133762 3.0333812581 3.0034332064 3.0096750203 2.9880586555 
2.9966986694 3.010513652 3.0440617031 3.0661120217 3.0485921718 3.0984668696 3.0707087799 3.0894678209 3.1055036667 
3.116977827 3.1301686593 3.1430079555 3.1542063358 3.1628458167 3.1707276358 3.1659294524 3.1563098055 3.1467011459 
3.1392718254 3.1323861457 3.1265101729 3.1198916791 3.1143528899 3.1090286624 3.0923958897 3.0888145634 3.0837772117 
3.0764140371 3.0664361304 3.0566088065 3.0483863461 3.0410023022 3.0302142036 3.1018391717 3.1267681807 3.1427040976 
3.1561326721 3.1660443308 3.178212898 3.1906902071 3.200256605 3.2133291702 3.2274319547 3.2403016284 3.2505143176 
3.2571650133 3.2660622535 3.2709041079 3.2728241714 3.2738234997 3.0799507876 3.0807245462 3.0804696041 3.0778181639 
3.0735752955 3.0669436632 3.0583707455 3.0502469116 3.0421564778 3.0352658432 3.038322502 3.2744394264 3.2689733909 
3.1236782766 3.2722238922 3.117132802 3.2823508522 3.0802030835 3.261555149 3.1053944588 3.1017263529 3.2732247285 
3.0964263304 3.079417531 3.0795963039 3.1115905959 3.2734189439 3.275132484 3.0834827922 3.0801822597 3.0807461226 
3.0949014966 3.0221589993 3.0336569314 3.0037767161 3.0100914985 2.9881852733 2.9971141163 3.0109332672 3.0444889225 
3.0666355452 3.0483415392 3.0989627312 3.0704822461 3.0892226521 3.1052998927 3.1169439352 3.1300818825 3.1430569478 
3.1544123025 3.1635526222 3.1712953971 3.1666735232 3.1571120568 3.1474037451 3.1399192307 3.1329779036 3.1270148669 
3.1204016291 3.1148047848 3.109408388 3.0927716042 3.0891244495 3.0840566325 3.076631573 3.066617415 3.0567362954 
3.0484729339 3.0410676231 3.0304617689 3.1024031384 3.1273878486 3.1434586156 3.1569712792 3.1669550772 3.1791267048 
3.1916321424 3.201337862 3.2146900896 3.2287699104 3.2417605836 3.2521600608 3.2588699199 3.2678491573 3.2729746953 
3.275079454 3.2762245002 3.076628121 3.0757555934 3.0751078644 3.0732141457 3.0692809217 3.0629223113 3.054766991 
3.0468419417 3.0390937364 3.0327039068 3.0354588912 3.2769375884 3.270942815 3.12419797 3.274285352 3.1175875944 
3.2878262692 3.0766890047 3.2632626978 3.1057671224 3.1021792046 3.2755681156 3.0968587382 3.0746484753 3.0746209093 
3.1119856416 3.2757894095 3.2775877318 3.0765332889 3.0762319519 3.0753762883 3.0953339952 3.0222965849 3.0339942536 
3.0043239339 3.0107574749 2.9884981552 2.997648623 3.0115047147 3.0451955806 3.0674128238 3.0479427124 3.0993879218 
3.0701448478 3.0888413341 3.1049518138 3.1167982905 3.129856837 3.1428908748 3.1546260447 3.1641787409 3.171747614 
3.1675911974 3.1582824616 3.1483604399 3.14070594 3.1336493319 3.1275783316 3.120959259 3.1152120059 3.1097894422 
3.0931272833 3.0894288562 3.0843369053 3.0768358673 3.0667771165 3.0568340521 3.04852357 3.0410940179 3.0304570897 
3.1032060708 3.1282340583 3.1444511283 3.1580388377 3.1680929805 3.180244354 3.1927962331 3.2026301374 3.2162627101 
3.2302075563 3.2433425749 3.2537439445 3.260534966 3.2695128396 3.2748785025 3.2770749629 3.278359872 3.0724099879 
3.073745028 3.07308082 3.0712289231 3.0675923312 3.0615690192 3.053392618 3.0454372132 3.0379430056 3.0317295051 
3.0346212335 3.2792372588 3.2727800377 3.124784584 3.276309501 3.1180780271 3.2877871131 3.0737748304 3.2649170416 
3.1061355548 3.1025381114 3.2776127899 3.0972971553 3.0726191712 3.0729627816 3.1123506537 3.2778676598 3.2811696921 
3.0733210915 3.0734566279 3.0736844992 3.0956923989 3.0231174125 3.0345644679 3.0051475976 3.0115898657 2.9891030813 
2.9984419154 3.0123757165 3.0459694325 3.0683768467 3.0474294992 3.0997756623 3.0695681978 3.0882105651 3.1043203048 
3.1162852107 3.1292749048 3.1424536467 3.1545483876 3.1649640093 3.1722727173 3.1688675522 3.1599443821 3.1495418983 
3.1415455617 3.1342839792 3.1279815868 3.1214796173 3.1154334473 3.1101280482 3.0934209028 3.0897194416 3.0845991704 
3.0770211537 3.0668952486 3.0568536542 3.0484965284 3.0410036167 3.0300248765 3.1040623973 3.1292254541 3.1455722241 
3.1592375824 3.1694049848 3.1814372416 3.1941093955 3.2040730346 3.2178106224 3.2316986683 3.2448005465 3.2555411956 
3.2623581953 3.2712854988 3.2771597466 3.2798490213 3.281150479 3.0767280692 3.0759757024 3.0748541589 3.0730678789 
3.0693771236 3.0635167637 3.0551376154 3.0471103075 3.0396532535 3.0335579987 3.0357404238 3.2820434229 3.2746366836 
3.1253026646 3.2787555028 3.1184677259 3.2466001152 3.0747158359 3.2666798195 3.1064896262 3.1028994598 3.2801512463 
3.097670995 3.074419095 3.0745734336 3.1126643044 3.2805573597 3.293735764 3.0772725643 3.0755125331 3.0760214938 
3.0959386143 3.0241588116 3.0340199408 3.005000394 3.0119960488 2.9893335889 2.9990339033 3.0129320242 3.0458002277 
3.0687945604 3.0461643006 3.1000599642 3.067731554 3.0865744888 3.1028502995 3.1150238707 3.1281371614 3.1405920924 
3.1544020245 3.1636094778 3.1731042509 3.1707658787 3.162189596 3.1508499602 3.142360787 3.1347897223 3.128217383 
3.1217770452 3.1163836941 3.1107400214 3.0936716103 3.0898996957 3.0847852932 3.0770948123 3.0668478492 3.0566820722 
3.0482995135 3.0406660466 3.0290048765 3.1049129626 3.1299718834 3.1465603676 3.1603060903 3.1706564553 3.1829095903 
3.1954839114 3.2056301071 3.2194993784 3.2334975078 3.2471510377 3.2576095025 3.2647237879 3.2740293094 3.280997928 
3.2834214588 3.2836648315 3.0765809266 3.0778512688 3.0779525928 3.0760766271 3.0722268705 3.0665765907 3.0580985731 
3.0502165363 3.0425081794 3.0362660496 3.0386004331 3.2843837669 3.2777281495 3.1257280528 3.2823784062 3.1187636208 
3.1260887002 3.0773413528 3.2689830107 3.1071046017 3.1032204707 3.2835507939 3.0979109332 3.0776175641 3.0777376861 
3.1134076388 3.2836702589 3.2717895182 3.0771810878 3.0769420344 3.0781013576 3.0961136225 3.0241767259 3.0313991234 
3.0029038044 3.0084080414 2.9874894953 2.9994998598 3.0135760427 3.0481082859 3.0699378611 3.0435281527 3.1001555482 
3.0656177106 3.0844335177 3.1010960208 3.1126557434 3.1259243711 3.1375436291 3.1542631881 3.1640543125 3.1749774542 
3.1745610982 3.1653959734 3.1529616037 3.1431865494 3.1351133959 3.1283125668 3.1217690516 3.1163681488 3.1113631535 
3.0940428716 3.09012573 3.084977667 3.0773691045 3.0668571915 3.0564551004 3.0479022726 3.0399907612 3.027322489 
3.1065929279 3.1308602792 3.1485079899 3.1633164404 3.1734476455 3.1855644865 3.1977112455 3.2085897518 3.2232301113 
3.2375635334 3.2512280032 3.265198741 3.2695856323 3.2780293534 3.2834083775 3.2837679309 3.2830804623 3.0718800919 
3.0796910528 3.0795268108 3.0794006445 3.0754577089 3.0697260955 3.060695694 3.0529684431 3.0450659552 3.0384782302 
3.0410354249 3.2816004964 3.2813626017 3.1256404974 3.2838233764 3.1190208285 3.0607480994 3.07687936 3.273261919 
3.1069212477 3.103189945 3.2838810929 3.0981466922 3.080280304 3.0803124561 3.1141380695 3.2839487094 3.0874407533 
3.0762627361 3.077919614 3.0799452155 3.0965704856 3.0259294404 3.0320108586 3.0056124953 3.0114825753 2.9903191076 
3.0051423575 3.0182362466 3.0551445122 3.0746784419 3.0451807351 3.0996652718 3.0607533421 3.0811519889 3.0989923225 
3.1129383155 3.1261204292 3.1384604884 3.1581032559 3.1781459255 3.1811545873 3.179111141 3.1681067139 3.1539818411 
3.1430042934 3.1346244254 3.1277333234 3.120489233 3.1144500246 3.1093293413 3.0937934359 3.0911204185 3.085752892 
3.0765786183 3.067277792 3.0560505386 3.047069032 3.0384165743 3.0258612335 3.1086350047 3.1334221002 3.1558570517 
3.1703821352 3.1795948545 3.1958248173 3.2051212511 3.2149570017 3.2335225744 3.2451110026 3.2613962551 3.2701048008 