# vtk DataFile Version 4.2
vtk output
ASCII
DATASET POLYDATA
POINTS 2744 float
-1500 -3172.45 100 -1500 -3172.45 -100 -1456.61 -3172.45 90.0969 
-1421.82 -3172.45 62.349 -1402.51 -3172.45 22.2521 -1402.51 -3172.45 -22.2521 
-1421.82 -3172.45 -62.349 -1456.61 -3172.45 -90.0969 -1469.32 -3141.77 90.0969 
-1444.72 -3117.17 62.349 -1431.06 -3103.52 22.2521 -1431.06 -3103.52 -22.2521 
-1444.72 -3117.17 -62.349 -1469.32 -3141.77 -90.0969 -1500 -3129.06 90.0969 
-1500 -3094.27 62.349 -1500 -3074.96 22.2521 -1500 -3074.96 -22.2521 
-1500 -3094.27 -62.349 -1500 -3129.06 -90.0969 -1530.68 -3141.77 90.0969 
-1555.28 -3117.17 62.349 -1568.94 -3103.52 22.2521 -1568.94 -3103.52 -22.2521 
-1555.28 -3117.17 -62.349 -1530.68 -3141.77 -90.0969 -1543.39 -3172.45 90.0969 
-1578.18 -3172.45 62.349 -1597.49 -3172.45 22.2521 -1597.49 -3172.45 -22.2521 
-1578.18 -3172.45 -62.349 -1543.39 -3172.45 -90.0969 -1530.68 -3203.13 90.0969 
-1555.28 -3227.74 62.349 -1568.94 -3241.39 22.2521 -1568.94 -3241.39 -22.2521 
-1555.28 -3227.74 -62.349 -1530.68 -3203.13 -90.0969 -1500 -3215.84 90.0969 
-1500 -3250.64 62.349 -1500 -3269.95 22.2521 -1500 -3269.95 -22.2521 
-1500 -3250.64 -62.349 -1500 -3215.84 -90.0969 -1469.32 -3203.13 90.0969 
-1444.72 -3227.74 62.349 -1431.06 -3241.39 22.2521 -1431.06 -3241.39 -22.2521 
-1444.72 -3227.74 -62.349 -1469.32 -3203.13 -90.0969 -825.072 -3172.45 1985 
-825.072 -3172.45 1785 -781.684 -3172.45 1975.1 -746.889 -3172.45 1947.35 
-727.579 -3172.45 1907.25 -727.579 -3172.45 1862.75 -746.889 -3172.45 1822.65 
-781.684 -3172.45 1794.9 -794.392 -3141.77 1975.1 -769.788 -3117.17 1947.35 
-756.134 -3103.52 1907.25 -756.134 -3103.52 1862.75 -769.788 -3117.17 1822.65 
-794.392 -3141.77 1794.9 -825.072 -3129.06 1975.1 -825.072 -3094.27 1947.35 
-825.072 -3074.96 1907.25 -825.072 -3074.96 1862.75 -825.072 -3094.27 1822.65 
-825.072 -3129.06 1794.9 -855.752 -3141.77 1975.1 -880.356 -3117.17 1947.35 
-894.01 -3103.52 1907.25 -894.01 -3103.52 1862.75 -880.356 -3117.17 1822.65 
-855.752 -3141.77 1794.9 -868.461 -3172.45 1975.1 -903.255 -3172.45 1947.35 
-922.565 -3172.45 1907.25 -922.565 -3172.45 1862.75 -903.255 -3172.45 1822.65 
-868.461 -3172.45 1794.9 -855.752 -3203.13 1975.1 -880.356 -3227.74 1947.35 
-894.01 -3241.39 1907.25 -894.01 -3241.39 1862.75 -880.356 -3227.74 1822.65 
-855.752 -3203.13 1794.9 -825.072 -3215.84 1975.1 -825.072 -3250.64 1947.35 
-825.072 -3269.95 1907.25 -825.072 -3269.95 1862.75 -825.072 -3250.64 1822.65 
-825.072 -3215.84 1794.9 -794.392 -3203.13 1975.1 -769.788 -3227.74 1947.35 
-756.134 -3241.39 1907.25 -756.134 -3241.39 1862.75 -769.788 -3227.74 1822.65 
-794.392 -3203.13 1794.9 -150.145 -3172.45 3870 -150.145 -3172.45 3670 
-106.756 -3172.45 3860.1 -71.9613 -3172.45 3832.35 -52.6517 -3172.45 3792.25 
-52.6517 -3172.45 3747.75 -71.9613 -3172.45 3707.65 -106.756 -3172.45 3679.9 
-119.464 -3141.77 3860.1 -94.8607 -3117.17 3832.35 -81.2067 -3103.52 3792.25 
-81.2067 -3103.52 3747.75 -94.8607 -3117.17 3707.65 -119.464 -3141.77 3679.9 
-150.145 -3129.06 3860.1 -150.145 -3094.27 3832.35 -150.145 -3074.96 3792.25 
-150.145 -3074.96 3747.75 -150.145 -3094.27 3707.65 -150.145 -3129.06 3679.9 
-180.825 -3141.77 3860.1 -205.428 -3117.17 3832.35 -219.082 -3103.52 3792.25 
-219.082 -3103.52 3747.75 -205.428 -3117.17 3707.65 -180.825 -3141.77 3679.9 
-193.533 -3172.45 3860.1 -228.328 -3172.45 3832.35 -247.637 -3172.45 3792.25 
-247.637 -3172.45 3747.75 -228.328 -3172.45 3707.65 -193.533 -3172.45 3679.9 
-180.825 -3203.13 3860.1 -205.428 -3227.74 3832.35 -219.082 -3241.39 3792.25 
-219.082 -3241.39 3747.75 -205.428 -3227.74 3707.65 -180.825 -3203.13 3679.9 
-150.145 -3215.84 3860.1 -150.145 -3250.64 3832.35 -150.145 -3269.95 3792.25 
-150.145 -3269.95 3747.75 -150.145 -3250.64 3707.65 -150.145 -3215.84 3679.9 
-119.464 -3203.13 3860.1 -94.8607 -3227.74 3832.35 -81.2067 -3241.39 3792.25 
-81.2067 -3241.39 3747.75 -94.8607 -3227.74 3707.65 -119.464 -3203.13 3679.9 
524.783 -3172.45 5755 524.783 -3172.45 5555 568.172 -3172.45 5745.1 
602.966 -3172.45 5717.35 622.276 -3172.45 5677.25 622.276 -3172.45 5632.75 
602.966 -3172.45 5592.65 568.172 -3172.45 5564.9 555.463 -3141.77 5745.1 
580.067 -3117.17 5717.35 593.721 -3103.52 5677.25 593.721 -3103.52 5632.75 
580.067 -3117.17 5592.65 555.463 -3141.77 5564.9 524.783 -3129.06 5745.1 
524.783 -3094.27 5717.35 524.783 -3074.96 5677.25 524.783 -3074.96 5632.75 
524.783 -3094.27 5592.65 524.783 -3129.06 5564.9 494.103 -3141.77 5745.1 
469.499 -3117.17 5717.35 455.845 -3103.52 5677.25 455.845 -3103.52 5632.75 
469.499 -3117.17 5592.65 494.103 -3141.77 5564.9 481.395 -3172.45 5745.1 
446.6 -3172.45 5717.35 427.29 -3172.45 5677.25 427.29 -3172.45 5632.75 
446.6 -3172.45 5592.65 481.395 -3172.45 5564.9 494.103 -3203.13 5745.1 
469.499 -3227.74 5717.35 455.845 -3241.39 5677.25 455.845 -3241.39 5632.75 
469.499 -3227.74 5592.65 494.103 -3203.13 5564.9 524.783 -3215.84 5745.1 
524.783 -3250.64 5717.35 524.783 -3269.95 5677.25 524.783 -3269.95 5632.75 
524.783 -3250.64 5592.65 524.783 -3215.84 5564.9 555.463 -3203.13 5745.1 
580.067 -3227.74 5717.35 593.721 -3241.39 5677.25 593.721 -3241.39 5632.75 
580.067 -3227.74 5592.65 555.463 -3203.13 5564.9 1199.71 -3172.45 7640 
1199.71 -3172.45 7440 1243.1 -3172.45 7630.1 1277.89 -3172.45 7602.35 
1297.2 -3172.45 7562.25 1297.2 -3172.45 7517.75 1277.89 -3172.45 7477.65 
1243.1 -3172.45 7449.9 1230.39 -3141.77 7630.1 1254.99 -3117.17 7602.35 
1268.65 -3103.52 7562.25 1268.65 -3103.52 7517.75 1254.99 -3117.17 7477.65 
1230.39 -3141.77 7449.9 1199.71 -3129.06 7630.1 1199.71 -3094.27 7602.35 
1199.71 -3074.96 7562.25 1199.71 -3074.96 7517.75 1199.71 -3094.27 7477.65 
1199.71 -3129.06 7449.9 1169.03 -3141.77 7630.1 1144.43 -3117.17 7602.35 
1130.77 -3103.52 7562.25 1130.77 -3103.52 7517.75 1144.43 -3117.17 7477.65 
1169.03 -3141.77 7449.9 1156.32 -3172.45 7630.1 1121.53 -3172.45 7602.35 
1102.22 -3172.45 7562.25 1102.22 -3172.45 7517.75 1121.53 -3172.45 7477.65 
1156.32 -3172.45 7449.9 1169.03 -3203.13 7630.1 1144.43 -3227.74 7602.35 
1130.77 -3241.39 7562.25 1130.77 -3241.39 7517.75 1144.43 -3227.74 7477.65 
1169.03 -3203.13 7449.9 1199.71 -3215.84 7630.1 1199.71 -3250.64 7602.35 
1199.71 -3269.95 7562.25 1199.71 -3269.95 7517.75 1199.71 -3250.64 7477.65 
1199.71 -3215.84 7449.9 1230.39 -3203.13 7630.1 1254.99 -3227.74 7602.35 
1268.65 -3241.39 7562.25 1268.65 -3241.39 7517.75 1254.99 -3227.74 7477.65 
1230.39 -3203.13 7449.9 -1500 3172.79 100 -1500 3172.79 -100 
-1456.61 3172.79 90.0969 -1421.82 3172.79 62.349 -1402.51 3172.79 22.2521 
-1402.51 3172.79 -22.2521 -1421.82 3172.79 -62.349 -1456.61 3172.79 -90.0969 
-1469.32 3203.47 90.0969 -1444.72 3228.07 62.349 -1431.06 3241.72 22.2521 
-1431.06 3241.72 -22.2521 -1444.72 3228.07 -62.349 -1469.32 3203.47 -90.0969 
-1500 3216.17 90.0969 -1500 3250.97 62.349 -1500 3270.28 22.2521 
-1500 3270.28 -22.2521 -1500 3250.97 -62.349 -1500 3216.17 -90.0969 
-1530.68 3203.47 90.0969 -1555.28 3228.07 62.349 -1568.94 3241.72 22.2521 
-1568.94 3241.72 -22.2521 -1555.28 3228.07 -62.349 -1530.68 3203.47 -90.0969 
-1543.39 3172.79 90.0969 -1578.18 3172.79 62.349 -1597.49 3172.79 22.2521 
-1597.49 3172.79 -22.2521 -1578.18 3172.79 -62.349 -1543.39 3172.79 -90.0969 
-1530.68 3142.1 90.0969 -1555.28 3117.5 62.349 -1568.94 3103.85 22.2521 
-1568.94 3103.85 -22.2521 -1555.28 3117.5 -62.349 -1530.68 3142.1 -90.0969 
-1500 3129.4 90.0969 -1500 3094.6 62.349 -1500 3075.29 22.2521 
-1500 3075.29 -22.2521 -1500 3094.6 -62.349 -1500 3129.4 -90.0969 
-1469.32 3142.1 90.0969 -1444.72 3117.5 62.349 -1431.06 3103.85 22.2521 
-1431.06 3103.85 -22.2521 -1444.72 3117.5 -62.349 -1469.32 3142.1 -90.0969 
-825.072 3172.79 1985 -825.072 3172.79 1785 -781.684 3172.79 1975.1 
-746.889 3172.79 1947.35 -727.579 3172.79 1907.25 -727.579 3172.79 1862.75 
-746.889 3172.79 1822.65 -781.684 3172.79 1794.9 -794.392 3203.47 1975.1 
-769.788 3228.07 1947.35 -756.134 3241.72 1907.25 -756.134 3241.72 1862.75 
-769.788 3228.07 1822.65 -794.392 3203.47 1794.9 -825.072 3216.17 1975.1 
-825.072 3250.97 1947.35 -825.072 3270.28 1907.25 -825.072 3270.28 1862.75 
-825.072 3250.97 1822.65 -825.072 3216.17 1794.9 -855.752 3203.47 1975.1 
-880.356 3228.07 1947.35 -894.01 3241.72 1907.25 -894.01 3241.72 1862.75 
-880.356 3228.07 1822.65 -855.752 3203.47 1794.9 -868.461 3172.79 1975.1 
-903.255 3172.79 1947.35 -922.565 3172.79 1907.25 -922.565 3172.79 1862.75 
-903.255 3172.79 1822.65 -868.461 3172.79 1794.9 -855.752 3142.1 1975.1 
-880.356 3117.5 1947.35 -894.01 3103.85 1907.25 -894.01 3103.85 1862.75 
-880.356 3117.5 1822.65 -855.752 3142.1 1794.9 -825.072 3129.4 1975.1 
-825.072 3094.6 1947.35 -825.072 3075.29 1907.25 -825.072 3075.29 1862.75 
-825.072 3094.6 1822.65 -825.072 3129.4 1794.9 -794.392 3142.1 1975.1 
-769.788 3117.5 1947.35 -756.134 3103.85 1907.25 -756.134 3103.85 1862.75 
-769.788 3117.5 1822.65 -794.392 3142.1 1794.9 -150.145 3172.79 3870 
-150.145 3172.79 3670 -106.756 3172.79 3860.1 -71.9613 3172.79 3832.35 
-52.6517 3172.79 3792.25 -52.6517 3172.79 3747.75 -71.9613 3172.79 3707.65 
-106.756 3172.79 3679.9 -119.464 3203.47 3860.1 -94.8607 3228.07 3832.35 
-81.2067 3241.72 3792.25 -81.2067 3241.72 3747.75 -94.8607 3228.07 3707.65 
-119.464 3203.47 3679.9 -150.145 3216.17 3860.1 -150.145 3250.97 3832.35 
-150.145 3270.28 3792.25 -150.145 3270.28 3747.75 -150.145 3250.97 3707.65 
-150.145 3216.17 3679.9 -180.825 3203.47 3860.1 -205.428 3228.07 3832.35 
-219.082 3241.72 3792.25 -219.082 3241.72 3747.75 -205.428 3228.07 3707.65 
-180.825 3203.47 3679.9 -193.533 3172.79 3860.1 -228.328 3172.79 3832.35 
-247.637 3172.79 3792.25 -247.637 3172.79 3747.75 -228.328 3172.79 3707.65 
-193.533 3172.79 3679.9 -180.825 3142.1 3860.1 -205.428 3117.5 3832.35 
-219.082 3103.85 3792.25 -219.082 3103.85 3747.75 -205.428 3117.5 3707.65 
-180.825 3142.1 3679.9 -150.145 3129.4 3860.1 -150.145 3094.6 3832.35 
-150.145 3075.29 3792.25 -150.145 3075.29 3747.75 -150.145 3094.6 3707.65 
-150.145 3129.4 3679.9 -119.464 3142.1 3860.1 -94.8607 3117.5 3832.35 
[...]
POINT_DATA 2744
COLOR_SCALARS Colors 3
0.705882 0 0 0.705882 0 0 0.705882 0 0 
0.705882 0 0 0.705882 0 0 
0.705882 0 0 0.705882 0 0 
0.705882 0 0 0.705882 0 0 
0.705882 0 0 0.705882 0 0 
0.705882 0 0 0.705882 0 0 
0.705882 0 0 0.705882 0 0 
0.705882 0 0 0.705882 0 0 
0.705882 0 0 0.705882 0 0 
0.705882 0 0 0.705882 0 0 
0.705882 0 0 0.705882 0 0 
0.705882 0 0 0.705882 0 0 
0.705882 0 0 0.705882 0 0 
0.705882 0 0 0.705882 0 0 
0.705882 0 0 0.705882 0 0 
0.705882 0 0 0.705882 0 0 
0.705882 0 0 0.705882 0 0 
0.705882 0 0 0.705882 0 0 
0.705882 0 0 0.705882 0 0 
0.705882 0 0 0.705882 0 0 
0.705882 0 0 0.705882 0 0 
0.705882 0 0 0.705882 0 0 
0.705882 0 0 0.705882 0 0 
0.705882 0 0 0.705882 0 0 
0.705882 0 0 0.705882 0 0 
0.705882 0 0 0.705882 0 0 
0.705882 0 0 0.705882 0 0 
0.705882 0 0 0.705882 0 0 
0.705882 0 0 0.705882 0 0 
0.705882 0 0 0.705882 0 0 
0.705882 0 0 0.705882 0 0 
0.705882 0 0 0.705882 0 0 
0.705882 0 0 0.705882 0 0 
0.705882 0 0 0.705882 0 0 
0.705882 0 0 0.705882 0 0 
0.705882 0 0 0.705882 0 0 
0.705882 0 0 0.705882 0 0 
0.705882 0 0 0.705882 0 0 
0.705882 0 0 0.705882 0 0 
0.705882 0 0 0.705882 0 0 
0.705882 0 0 0.705882 0 0 
0.705882 0 0 0.705882 0 0 
0.705882 0 0 0.705882 0 0 
0.705882 0 0 0.705882 0 0 
0.705882 0 0 0.705882 0 0 
0.705882 0 0 0.705882 0 0 
0.705882 0 0 0.705882 0 0 
0.705882 0 0 0.705882 0 0 
0.705882 0 0 0.705882 0 0 
0.705882 0 0 0.705882 0 0 
0.705882 0 0 0.705882 0 0 
0.705882 0 0 0.705882 0 0 
0.705882 0 0 0.705882 0 0 
0.705882 0 0 0.705882 0 0 
0.705882 0 0 0.705882 0 0 
0.705882 0 0 0.705882 0 0 
0.705882 0 0 0.705882 0 0 
0.705882 0 0 0.705882 0 0 
0.705882 0 0 0.705882 0 0 
0.705882 0 0 0.705882 0 0 
0.705882 0 0 0.705882 0 0 
0.705882 0 0 0.705882 0 0 
0.705882 0 0 0.705882 0 0 
0.705882 0 0 0.705882 0 0 
0.705882 0 0 0.705882 0 0 
0.705882 0 0 0.705882 0 0 
0.705882 0 0 0.705882 0 0 
0.705882 0 0 0.705882 0 0 
0.705882 0 0 0.705882 0 0 
0.705882 0 0 0.705882 0 0 
0.705882 0 0 0.705882 0 0 
0.705882 0 0 0.705882 0 0 
0.705882 0 0 0.705882 0 0 
0.705882 0 0 0.705882 0 0 
0.705882 0 0 0.705882 0 0 
0.705882 0 0 0.705882 0 0 
0.705882 0 0 0.705882 0 0 
0.705882 0 0 0.705882 0 0 
0.705882 0 0 0.705882 0 0 
0.705882 0 0 0.705882 0 0 
0.705882 0 0 0.705882 0 0 
0.705882 0 0 0.705882 0 0 
0.705882 0 0 0.705882 0 0 
0.705882 0 0 0.705882 0 0 
0.705882 0 0 0.705882 0 0 
0.705882 0 0 0.705882 0 0 
0.705882 0 0 0.705882 0 0 
0.705882 0 0 0.705882 0 0 
0.705882 0 0 0.705882 0 0 
0.705882 0 0 0.705882 0 0 
0.705882 0 0 0.705882 0 0 
0.705882 0 0 0.705882 0 0 
0.705882 0 0 0.705882 0 0 
0.705882 0 0 0.705882 0 0 
0.705882 0 0 0.705882 0 0 
0.705882 0 0 0.705882 0 0 
0.705882 0 0 0.705882 0 0 
0.705882 0 0 0.705882 0 0 
0.705882 0 0 0.705882 0 0 
0.705882 0 0 0.705882 0 0 
0.705882 0 0 0.705882 0 0 
0.705882 0 0 0.705882 0 0 
0.705882 0 0 0.705882 0 0 
0.705882 0 0 0.705882 0 0 
0.705882 0 0 0.705882 0 0 
0.705882 0 0 0.705882 0 0 
0.705882 0 0 0.705882 0 0 
0.705882 0 0 0.705882 0 0 
0.705882 0 0 0.705882 0 0 
0.705882 0 0 0.705882 0 0 
0.705882 0 0 0.705882 0 0 
0.705882 0 0 0.705882 0 0 
0.705882 0 0 0.705882 0 0 
0.705882 0 0 0.705882 0 0 
0.705882 0 0 0.705882 0 0 
0.705882 0 0 0.705882 0 0 
0.705882 0 0 0.705882 0 0 
0.705882 0 0 0.705882 0 0 
0.705882 0 0 0.705882 0 0 
0.705882 0 0 0.705882 0 0 
0.705882 0 0 0.705882 0 0 
0.705882 0 0 0.705882 0 0 
0.705882 0 0 0.705882 0 0 
0.705882 0 0 0.705882 0 0 
0.705882 0 0 0.705882 0 0 
0.705882 0 0 0.705882 0 0 
0.705882 0 0 0.705882 0 0 
0.705882 0 0 0.705882 0 0 
0.705882 0 0 0.705882 0 0 
0.705882 0 0 0.705882 0 0 
0.705882 0 0 0.705882 0 0 
0.705882 0 0 0.705882 0 0 
0.705882 0 0 0.705882 0 0 
0.705882 0 0 0.705882 0 0 
0.705882 0 0 0.705882 0 0 
0.705882 0 0 0.705882 0 0 
0.705882 0 0 0.705882 0 0 
0.705882 0 0 0.705882 0 0 
0.705882 0 0 0.705882 0 0 
0.705882 0 0 0.705882 0 0 
0.705882 0 0 0.705882 0 0 
0.705882 0 0 0.705882 0 0 
0.705882 0 0 0.705882 0 0 
0.705882 0 0 0.705882 0 0 
0.705882 0 0 0.705882 0 0 
0.705882 0 0 0.705882 0 0 
0.705882 0 0 0.705882 0 0 
0.705882 0 0 0.705882 0 0 
0.705882 0 0 0.705882 0 0 
0.705882 0 0 0.705882 0 0 
0.705882 0 0 0.705882 0 0 
0.705882 0 0 0.705882 0 0 
0.705882 0 0 0.705882 0 0 
0.705882 0 0 0.705882 0 0 
0.705882 0 0 0.705882 0 0 
0.705882 0 0 0.705882 0 0 
0.705882 0 0 0.705882 0 0 
0.705882 0 0 0.705882 0 0 
0.705882 0 0 0.705882 0 0 
0.705882 0 0 0.705882 0 0 
0.705882 0 0 0.705882 0 0 
0.705882 0 0 0.705882 0 0 
0.705882 0 0 0.705882 0 0 
0.705882 0 0 0.705882 0 0 
0.705882 0 0 0.705882 0 0 
0.705882 0 0 0.705882 0 0 
0.705882 0 0 0.705882 0 0 
0.705882 0 0 0.705882 0 0 
0.705882 0 0 0.705882 0 0 
0.705882 0 0 0.705882 0 0 
0.705882 0 0 0.705882 0 0 
0.705882 0 0 0.705882 0 0 
0.705882 0 0 0.705882 0 0 
0.705882 0 0 0.705882 0 0 
0.705882 0 0 0.705882 0 0 
0.705882 0 0 0.705882 0 0 
0.705882 0 0 0.705882 0 0 
0.705882 0 0 0.705882 0 0 
0.705882 0 0 0.705882 0 0 
0.705882 0 0 0.705882 0 0 
0.705882 0 0 0.705882 0 0 
0.705882 0 0 0.705882 0 0 
0.705882 0 0 0.705882 0 0 
0.705882 0 0 0.705882 0 0 
0.705882 0 0 0.705882 0 0 
0.705882 0 0 0.705882 0 0 
0.705882 0 0 0.705882 0 0 
0.705882 0 0 0.705882 0 0 
0.705882 0 0 0.705882 0 0 
0.705882 0 0 0.705882 0 0 
0.705882 0 0 0.705882 0 0 
0.705882 0 0 0.705882 0 0 
0.705882 0 0 0.705882 0 0 
0.705882 0 0 0.705882 0 0 
0.705882 0 0 0.705882 0 0 
0.705882 0 0 0.705882 0 0 
0.705882 0 0 0.705882 0 0 
0.705882 0 0 0.705882 0 0 
0.705882 0 0 0.705882 0 0 
0.705882 0 0 0.705882 0 0 
0.705882 0 0 0.705882 0 0 
0.705882 0 0 0.705882 0 0 
0.705882 0 0 0.705882 0 0 
0.705882 0 0 0.705882 0 0 
0.705882 0 0 0.705882 0 0 
0.705882 0 0 0.705882 0 0 
0.705882 0 0 0.705882 0 0 
0.705882 0 0 0.705882 0 0 
0.705882 0 0 0.705882 0 0 
0.705882 0 0 0.705882 0 0 
0.705882 0 0 0.705882 0 0 
0.705882 0 0 0.705882 0 0 
0.705882 0 0 0.705882 0 0 
0.705882 0 0 0.705882 0 0 
0.705882 0 0 0.705882 0 0 
0.705882 0 0 0.705882 0 0 
0.705882 0 0 0.705882 0 0 
0.705882 0 0 0.705882 0 0 
0.705882 0 0 0.705882 0 0 
0.705882 0 0 0.705882 0 0 
0.705882 0 0 0.705882 0 0 
0.705882 0 0 0.705882 0 0 
0.705882 0 0 0.705882 0 0 
0.705882 0 0 0.705882 0 0 
0.705882 0 0 0.705882 0 0 
0.705882 0 0 0.705882 0 0 
0.705882 0 0 0.705882 0 0 
0.705882 0 0 0.705882 0 0 
0.705882 0 0 0.705882 0 0 
0.705882 0 0 0.705882 0 0 
0.705882 0 0 0.705882 0 0 
0.705882 0 0 0.705882 0 0 
0.705882 0 0 0.705882 0 0 
0.705882 0 0 0.705882 0 0 
0.705882 0 0 0.705882 0 0 
0.705882 0 0 0.705882 0 0 
0.705882 0 0 0.705882 0 0 
0.705882 0 0 0.705882 0 0 
0.705882 0 0 0.705882 0 0 
0.705882 0 0 0.705882 0 0 
0.705882 0 0 0.705882 0 0 
0.705882 0 0 0.705882 0 0 
0.705882 0 0 0.705882 0 0 
0.705882 0 0 0.705882 0 0 
0.705882 0 0 0.705882 0 0 
0.705882 0 0 0.705882 0 0 
0.705882 0 0 0.705882 0 0 
0.705882 0 0 0.705882 0 0 
0.705882 0 0 0.705882 0 0 
0.705882 0 0 0.705882 0 0 
0.705882 0 0 0.705882 0 0 
0.705882 0 0 0.705882 0 0 
0.705882 0 0 0.705882 0 0 
0.705882 0 0 0.705882 0 0 
0.705882 0 0 0.705882 0 0 
0.705882 0 0 0.705882 0 0 
0.705882 0 0 0.705882 0 0 
0.705882 0 0 0.705882 0 0 
0.705882 0 0 0.705882 0 0 
0.705882 0 0 0.705882 0 0 
0.705882 0 0 0.705882 0 0 
0.705882 0 0 0.705882 0 0 
0.705882 0 0 0.705882 0 0 
0.705882 0 0 0.705882 0 0 
0.705882 0 0 0.705882 0 0 
0.705882 0 0 0.705882 0 0 
0.705882 0 0 0.705882 0 0 
0.705882 0 0 0.705882 0 0 
0.705882 0 0 0.705882 0 0 
0.705882 0 0 0.705882 0 0 
0.705882 0 0 0.705882 0 0 
0.705882 0 0 0.705882 0 0 
0.705882 0 0 0.705882 0 0 
0.705882 0 0 0.705882 0 0 
0.705882 0 0 0.784314 0.470588 0.196078 
0.784314 0.470588 0.196078 0.784314 0.470588 0.196078 
0.784314 0.470588 0.196078 0.784314 0.470588 0.196078 
0.784314 0.470588 0.196078 0.784314 0.470588 0.196078 
0.784314 0.470588 0.196078 0.784314 0.470588 0.196078 
0.784314 0.470588 0.196078 0.784314 0.470588 0.196078 
0.784314 0.470588 0.196078 0.784314 0.470588 0.196078 
0.784314 0.470588 0.196078 0.784314 0.470588 0.196078 
0.784314 0.470588 0.196078 0.784314 0.470588 0.196078 
0.784314 0.470588 0.196078 0.784314 0.470588 0.196078 
0.784314 0.470588 0.196078 0.784314 0.470588 0.196078 
0.784314 0.470588 0.196078 0.784314 0.470588 0.196078 
0.784314 0.470588 0.196078 0.784314 0.470588 0.196078 
0.784314 0.470588 0.196078 0.784314 0.470588 0.196078 
0.784314 0.470588 0.196078 0.784314 0.470588 0.196078 
0.784314 0.470588 0.196078 0.784314 0.470588 0.196078 
0.784314 0.470588 0.196078 0.784314 0.470588 0.196078 
0.784314 0.470588 0.196078 0.784314 0.470588 0.196078 
0.784314 0.470588 0.196078 0.784314 0.470588 0.196078 
0.784314 0.470588 0.196078 0.784314 0.470588 0.196078 
0.784314 0.470588 0.196078 0.784314 0.470588 0.196078 
0.784314 0.470588 0.196078 0.784314 0.470588 0.196078 
0.784314 0.470588 0.196078 0.784314 0.470588 0.196078 
0.784314 0.470588 0.196078 0.784314 0.470588 0.196078 
0.784314 0.470588 0.196078 0.784314 0.470588 0.196078 
0.784314 0.470588 0.196078 0.784314 0.470588 0.196078 
0.784314 0.470588 0.196078 0.784314 0.470588 0.196078 
0.784314 0.470588 0.196078 0.784314 0.470588 0.196078 
0.784314 0.470588 0.196078 0.784314 0.470588 0.196078 
0.784314 0.470588 0.196078 0.784314 0.470588 0.196078 
0.784314 0.470588 0.196078 0.784314 0.470588 0.196078 
0.784314 0.470588 0.196078 0.784314 0.470588 0.196078 
0.784314 0.470588 0.196078 0.784314 0.470588 0.196078 
0.784314 0.470588 0.196078 0.784314 0.470588 0.196078 
0.784314 0.470588 0.196078 0.784314 0.470588 0.196078 
0.784314 0.470588 0.196078 0.784314 0.470588 0.196078 
0.784314 0.470588 0.196078 0.784314 0.470588 0.196078 
0.784314 0.470588 0.196078 0.784314 0.470588 0.196078 
0.784314 0.470588 0.196078 0.784314 0.470588 0.196078 
0.784314 0.470588 0.196078 0.784314 0.470588 0.196078 
0.784314 0.470588 0.196078 0.784314 0.470588 0.196078 
0.784314 0.470588 0.196078 0.784314 0.470588 0.196078 
0.784314 0.470588 0.196078 0.784314 0.470588 0.196078 
0.784314 0.470588 0.196078 0.784314 0.470588 0.196078 
0.784314 0.470588 0.196078 0.784314 0.470588 0.196078 
0.784314 0.470588 0.196078 0.784314 0.470588 0.196078 
0.784314 0.470588 0.196078 0.784314 0.470588 0.196078 
0.784314 0.470588 0.196078 0.784314 0.470588 0.196078 
0.784314 0.470588 0.196078 0.784314 0.470588 0.196078 
0.784314 0.470588 0.196078 0.784314 0.470588 0.196078 
0.784314 0.470588 0.196078 0.784314 0.470588 0.196078 
0.784314 0.470588 0.196078 0.784314 0.470588 0.196078 
0.784314 0.470588 0.196078 0.784314 0.470588 0.196078 
0.784314 0.470588 0.196078 0.784314 0.470588 0.196078 
0.784314 0.470588 0.196078 0.784314 0.470588 0.196078 
0.784314 0.470588 0.196078 0.784314 0.470588 0.196078 
0.784314 0.470588 0.196078 0.784314 0.470588 0.196078 
0.784314 0.470588 0.196078 0.784314 0.470588 0.196078 
0.784314 0.470588 0.196078 0.784314 0.470588 0.196078 
0.784314 0.470588 0.196078 0.784314 0.470588 0.196078 
0.784314 0.470588 0.196078 0.784314 0.470588 0.196078 
0.784314 0.470588 0.196078 0.784314 0.470588 0.196078 
0.784314 0.470588 0.196078 0.784314 0.470588 0.196078 
0.784314 0.470588 0.196078 0.784314 0.470588 0.196078 
0.784314 0.470588 0.196078 0.784314 0.470588 0.196078 
0.784314 0.470588 0.196078 0.784314 0.470588 0.196078 
0.784314 0.470588 0.196078 0.784314 0.470588 0.196078 
0.784314 0.470588 0.196078 0.784314 0.470588 0.196078 
0.784314 0.470588 0.196078 0.784314 0.470588 0.196078 
0.784314 0.470588 0.196078 0.784314 0.470588 0.196078 
0.784314 0.470588 0.196078 0.784314 0.470588 0.196078 
0.784314 0.470588 0.196078 0.784314 0.470588 0.196078 
0.784314 0.470588 0.196078 0.784314 0.470588 0.196078 
0.784314 0.470588 0.196078 0.784314 0.470588 0.196078 
0.784314 0.470588 0.196078 0.784314 0.470588 0.196078 
0.784314 0.470588 0.196078 0.705882 0 0 
0.705882 0 0 0.705882 0 0 
0.705882 0 0 0.705882 0 0 
0.705882 0 0 0.705882 0 0 
0.705882 0 0 0.705882 0 0 
0.705882 0 0 0.705882 0 0 
0.705882 0 0 0.705882 0 0 
0.705882 0 0 0.705882 0 0 
0.705882 0 0 0.705882 0 0 
0.705882 0 0 0.705882 0 0 
0.705882 0 0 0.705882 0 0 
0.705882 0 0 0.705882 0 0 
0.705882 0 0 0.705882 0 0 
0.705882 0 0 0.705882 0 0 
0.705882 0 0 0.705882 0 0 
0.705882 0 0 0.705882 0 0 
0.705882 0 0 0.705882 0 0 
0.705882 0 0 0.705882 0 0 
0.705882 0 0 0.705882 0 0 
0.705882 0 0 0.705882 0 0 
0.705882 0 0 0.705882 0 0 
0.705882 0 0 0.705882 0 0 
0.705882 0 0 0.705882 0 0 
0.705882 0 0 0.705882 0 0 
0.705882 0 0 0.705882 0 0 
0.705882 0 0 0.705882 0 0 
0.705882 0 0 0.705882 0 0 
0.705882 0 0 0.705882 0 0 
0.705882 0 0 0.705882 0 0 
0.705882 0 0 0.705882 0 0 
0.705882 0 0 0.705882 0 0 
0.705882 0 0 0.705882 0 0 
0.705882 0 0 0.705882 0 0 
0.705882 0 0 0.705882 0 0 
0.705882 0 0 0.705882 0 0 
0.705882 0 0 0.705882 0 0 
0.705882 0 0 0.705882 0 0 
0.705882 0 0 0.705882 0 0 
0.705882 0 0 0.705882 0 0 
0.705882 0 0 0.705882 0 0 
0.705882 0 0 0.705882 0 0 
0.705882 0 0 0.705882 0 0 
0.705882 0 0 0.705882 0 0 
0.705882 0 0 0.705882 0 0 
0.705882 0 0 0.705882 0 0 
0.705882 0 0 0.705882 0 0 
0.705882 0 0 0.705882 0 0 
0.705882 0 0 0.705882 0 0 
0.705882 0 0 0.705882 0 0 
0.705882 0 0 0.705882 0 0 
0.705882 0 0 0.784314 0.470588 0.196078 
0.784314 0.470588 0.196078 0.784314 0.470588 0.196078 
0.784314 0.470588 0.196078 0.784314 0.470588 0.196078 
0.784314 0.470588 0.196078 0.784314 0.470588 0.196078 
0.784314 0.470588 0.196078 0.784314 0.470588 0.196078 
0.784314 0.470588 0.196078 0.784314 0.470588 0.196078 
0.784314 0.470588 0.196078 0.784314 0.470588 0.196078 
0.784314 0.470588 0.196078 0.784314 0.470588 0.196078 
0.784314 0.470588 0.196078 0.784314 0.470588 0.196078 
0.784314 0.470588 0.196078 0.784314 0.470588 0.196078 
0.784314 0.470588 0.196078 0.784314 0.470588 0.196078 
0.784314 0.470588 0.196078 0.784314 0.470588 0.196078 
0.784314 0.470588 0.196078 0.784314 0.470588 0.196078 
0.784314 0.470588 0.196078 0.784314 0.470588 0.196078 
0.784314 0.470588 0.196078 0.784314 0.470588 0.196078 
0.784314 0.470588 0.196078 0.784314 0.470588 0.196078 
0.784314 0.470588 0.196078 0.784314 0.470588 0.196078 
0.784314 0.470588 0.196078 0.784314 0.470588 0.196078 
0.784314 0.470588 0.196078 0.784314 0.470588 0.196078 
0.784314 0.470588 0.196078 0.784314 0.470588 0.196078 
0.784314 0.470588 0.196078 0.784314 0.470588 0.196078 
0.784314 0.470588 0.196078 0.784314 0.470588 0.196078 
0.784314 0.470588 0.196078 0.784314 0.470588 0.196078 
0.784314 0.470588 0.196078 0.784314 0.470588 0.196078 
0.784314 0.470588 0.196078 0.784314 0.470588 0.196078 
0.784314 0.470588 0.196078 0.784314 0.470588 0.196078 
0.784314 0.470588 0.196078 0.784314 0.470588 0.196078 
0.784314 0.470588 0.196078 0.784314 0.470588 0.196078 
0.784314 0.470588 0.196078 0.784314 0.470588 0.196078 
0.784314 0.470588 0.196078 0.784314 0.470588 0.196078 
0.784314 0.470588 0.196078 0.784314 0.470588 0.196078 
0.784314 0.470588 0.196078 0.784314 0.470588 0.196078 
0.784314 0.470588 0.196078 0.784314 0.470588 0.196078 
0.784314 0.470588 0.196078 0.784314 0.470588 0.196078 
0.784314 0.470588 0.196078 0.784314 0.470588 0.196078 
0.784314 0.470588 0.196078 0.784314 0.470588 0.196078 
0.784314 0.470588 0.196078 0.784314 0.470588 0.196078 
0.784314 0.470588 0.196078 0.784314 0.470588 0.196078 
0.784314 0.470588 0.196078 0.784314 0.470588 0.196078 
0.784314 0.470588 0.196078 0.784314 0.470588 0.196078 
0.784314 0.470588 0.196078 0.784314 0.470588 0.196078 
0.784314 0.470588 0.196078 0.784314 0.470588 0.196078 
0.784314 0.470588 0.196078 0.784314 0.470588 0.196078 
0.784314 0.470588 0.196078 0.784314 0.470588 0.196078 
0.784314 0.470588 0.196078 0.784314 0.470588 0.196078 
0.784314 0.470588 0.196078 0.784314 0.470588 0.196078 
0.784314 0.470588 0.196078 0.784314 0.470588 0.196078 
0.784314 0.470588 0.196078 0.784314 0.470588 0.196078 
0.784314 0.470588 0.196078 0.784314 0.470588 0.196078 
0.784314 0.470588 0.196078 0.784314 0.470588 0.196078 
0.784314 0.470588 0.196078 0.784314 0.470588 0.196078 
0.784314 0.470588 0.196078 0.784314 0.470588 0.196078 
0.784314 0.470588 0.196078 0.784314 0.470588 0.196078 
0.784314 0.470588 0.196078 0.784314 0.470588 0.196078 
0.784314 0.470588 0.196078 0.784314 0.470588 0.196078 
0.784314 0.470588 0.196078 0.784314 0.470588 0.196078 
0.784314 0.470588 0.196078 0.784314 0.470588 0.196078 
0.784314 0.470588 0.196078 0.784314 0.470588 0.196078 
0.784314 0.470588 0.196078 0.784314 0.470588 0.196078 
0.784314 0.470588 0.196078 0.784314 0.470588 0.196078 
0.784314 0.470588 0.196078 0.784314 0.470588 0.196078 
0.784314 0.470588 0.196078 0.784314 0.470588 0.196078 
0.784314 0.470588 0.196078 0.784314 0.470588 0.196078 
0.784314 0.470588 0.196078 0.784314 0.470588 0.196078 
0.784314 0.470588 0.196078 0.784314 0.470588 0.196078 
0.784314 0.470588 0.196078 0.784314 0.470588 0.196078 
0.784314 0.470588 0.196078 0.784314 0.470588 0.196078 
0.784314 0.470588 0.196078 0.784314 0.470588 0.196078 
0.784314 0.470588 0.196078 0.784314 0.470588 0.196078 
0.784314 0.470588 0.196078 0.784314 0.470588 0.196078 
0.784314 0.470588 0.196078 0.784314 0.470588 0.196078 
0.784314 0.470588 0.196078 0.784314 0.470588 0.196078 
0.784314 0.470588 0.196078 0.784314 0.470588 0.196078 
0.784314 0.470588 0.196078 0.784314 0.470588 0.196078 
0.784314 0.470588 0.196078 0.784314 0.470588 0.196078 
0.784314 0.470588 0.196078 0.705882 0 0 
0.705882 0 0 0.705882 0 0 
0.705882 0 0 0.705882 0 0 
0.705882 0 0 0.705882 0 0 
0.705882 0 0 0.705882 0 0 
0.705882 0 0 0.705882 0 0 
0.705882 0 0 0.705882 0 0 
0.705882 0 0 0.705882 0 0 
0.705882 0 0 0.705882 0 0 
0.705882 0 0 0.705882 0 0 
0.705882 0 0 0.705882 0 0 
0.705882 0 0 0.705882 0 0 
0.705882 0 0 0.705882 0 0 
0.705882 0 0 0.705882 0 0 
0.705882 0 0 0.705882 0 0 
0.705882 0 0 0.705882 0 0 
0.705882 0 0 0.705882 0 0 
0.705882 0 0 0.705882 0 0 
0.705882 0 0 0.705882 0 0 
0.705882 0 0 0.705882 0 0 
0.705882 0 0 0.705882 0 0 
0.705882 0 0 0.705882 0 0 
0.705882 0 0 0.705882 0 0 
0.705882 0 0 0.705882 0 0 
0.705882 0 0 0.705882 0 0 
0.705882 0 0 0.705882 0 0 
0.705882 0 0 0.705882 0 0 
0.705882 0 0 0.705882 0 0 
0.705882 0 0 0.705882 0 0 
0.705882 0 0 0.705882 0 0 
0.705882 0 0 0.705882 0 0 
0.705882 0 0 0.705882 0 0 
0.705882 0 0 0.705882 0 0 
0.705882 0 0 0.705882 0 0 
0.705882 0 0 0.705882 0 0 
0.705882 0 0 0.705882 0 0 
0.705882 0 0 0.705882 0 0 
0.705882 0 0 0.705882 0 0 
0.705882 0 0 0.705882 0 0 
0.705882 0 0 0.705882 0 0 
0.705882 0 0 0.705882 0 0 
0.705882 0 0 0.705882 0 0 
0.705882 0 0 0.705882 0 0 
0.705882 0 0 0.705882 0 0 
0.705882 0 0 0.705882 0 0 
0.705882 0 0 0.705882 0 0 
0.705882 0 0 0.705882 0 0 
0.705882 0 0 0.705882 0 0 
0.705882 0 0 0.705882 0 0 
0.705882 0 0 0.705882 0 0 
0.705882 0 0 0.784314 0.470588 0.196078 
0.784314 0.470588 0.196078 0.784314 0.470588 0.196078 
0.784314 0.470588 0.196078 0.784314 0.470588 0.196078 
0.784314 0.470588 0.196078 0.784314 0.470588 0.196078 
0.784314 0.470588 0.196078 0.784314 0.470588 0.196078 
0.784314 0.470588 0.196078 0.784314 0.470588 0.196078 
0.784314 0.470588 0.196078 0.784314 0.470588 0.196078 
0.784314 0.470588 0.196078 0.784314 0.470588 0.196078 
0.784314 0.470588 0.196078 0.784314 0.470588 0.196078 
0.784314 0.470588 0.196078 0.784314 0.470588 0.196078 
0.784314 0.470588 0.196078 0.784314 0.470588 0.196078 
0.784314 0.470588 0.196078 0.784314 0.470588 0.196078 
0.784314 0.470588 0.196078 0.784314 0.470588 0.196078 
0.784314 0.470588 0.196078 0.784314 0.470588 0.196078 
0.784314 0.470588 0.196078 0.784314 0.470588 0.196078 
0.784314 0.470588 0.196078 0.784314 0.470588 0.196078 
0.784314 0.470588 0.196078 0.784314 0.470588 0.196078 
0.784314 0.470588 0.196078 0.784314 0.470588 0.196078 
0.784314 0.470588 0.196078 0.784314 0.470588 0.196078 
0.784314 0.470588 0.196078 0.784314 0.470588 0.196078 
0.784314 0.470588 0.196078 0.784314 0.470588 0.196078 
0.784314 0.470588 0.196078 0.784314 0.470588 0.196078 
0.784314 0.470588 0.196078 0.784314 0.470588 0.196078 
0.784314 0.470588 0.196078 0.784314 0.470588 0.196078 
0.784314 0.470588 0.196078 0.784314 0.470588 0.196078 
0.784314 0.470588 0.196078 0.784314 0.470588 0.196078 
0.784314 0.470588 0.196078 0.784314 0.470588 0.196078 
0.784314 0.470588 0.196078 0.784314 0.470588 0.196078 
0.784314 0.470588 0.196078 0.784314 0.470588 0.196078 