# vtk DataFile Version 4.2
vtk output
ASCII
DATASET POLYDATA
POINTS 6566 float
2583.95 -2522.1 5800 2609.9 -2532.28 5800 2625.99 -2522.1 5800 
2550.82 -2509.1 5800 2551.9 -2509.53 5800 2580.9 -2520.9 5800 
2638.9 -2516.55 5800 2646.85 -2509.1 5800 2517.69 -2496.11 5800 
2522.89 -2498.15 5800 2660.72 -2496.1 5800 2488.34 -2483.11 5800 
2493.89 -2486.77 5800 2667.9 -2489.37 5800 2674.6 -2483.1 5800 
2463.21 -2470.1 5800 2464.9 -2471.48 5800 2688.47 -2470.1 5800 
2447.67 -2457.1 5800 2696.9 -2462.2 5800 2702.35 -2457.1 5800 
2431.48 -2444.1 5800 2435.9 -2447.72 5800 2716.2 -2444.09 5800 
2415.62 -2431.1 5800 2725.91 -2435.64 5800 2731.55 -2431.09 5800 
2399.75 -2418.1 5800 2406.9 -2423.96 5800 2747.69 -2418.09 5800 
2383.89 -2405.1 5800 2754.91 -2412.28 5800 2763.83 -2405.09 5800 
2367.5 -2392.1 5800 2377.9 -2400.19 5800 2779.97 -2392.09 5800 
2349.27 -2379.1 5800 2783.91 -2388.91 5800 2796.11 -2379.09 5800 
2328.01 -2366.1 5800 2348.9 -2378.85 5800 2812.24 -2366.08 5800 
2306.7 -2353.1 5800 2319.9 -2361.15 5800 2812.92 -2365.55 5800 
2828.38 -2353.08 5800 2288.97 -2340.1 5800 2290.9 -2341.62 5800 
2841.92 -2342.18 5800 2844.52 -2340.08 5800 2272.72 -2327.1 5800 
2860.66 -2327.08 5800 2256.48 -2314.1 5800 2261.9 -2318.44 5800 
2870.92 -2318.81 5800 2876.8 -2314.08 5800 2240.24 -2301.1 5800 
2892.94 -2301.08 5800 2223.99 -2288.1 5800 2232.9 -2295.23 5800 
2899.92 -2295.45 5800 2909.08 -2288.08 5800 2207.75 -2275.1 5800 
2925.21 -2275.07 5800 2191.51 -2262.1 5800 2203.9 -2272.02 5800 
2928.93 -2272.08 5800 2941.1 -2262.07 5800 2175.26 -2249.1 5800 
2957.49 -2249.07 5800 2177.53 -2236.1 5800 2957.93 -2248.72 5800 
2971.18 -2236.07 5800 2177.9 -2223.1 5800 2985.42 -2223.07 5800 
2178.11 -2210.09 5800 2986.93 -2221.72 5800 2999.38 -2210.07 5800 
2178.44 -2197.09 5800 3013.27 -2197.06 5800 2179.18 -2184.09 5800 
3015.94 -2194.57 5800 3027.16 -2184.06 5800 2179.93 -2171.09 5800 
3041.05 -2171.06 5800 2180.67 -2158.09 5800 3044.94 -2167.42 5800 
3051.12 -2158.06 5800 2181.42 -2145.09 5800 3054.96 -2145.06 5800 
2182.16 -2132.09 5800 3056.04 -2132.06 5800 2182.91 -2119.09 5800 
3057.12 -2119.06 5800 2183.65 -2106.09 5800 3058.2 -2106.06 5800 
2184.4 -2093.09 5800 3059.28 -2093.06 5800 2185.14 -2080.08 5800 
3060.36 -2080.05 5800 2185.89 -2067.08 5800 3061.3 -2067.05 5800 
2185.4 -2054.08 5800 3062.13 -2054.05 5800 2183.13 -2041.08 5800 
3062.63 -2041.05 5800 2180.86 -2028.08 5800 3063.08 -2028.05 5800 
2178.59 -2015.08 5800 3063.54 -2015.05 5800 2176.32 -2002.08 5800 
3064 -2002.05 5800 2174.04 -1989.08 5800 2174.92 -1994.1 5800 
3064.45 -1989.05 5800 2171.77 -1976.08 5800 3064.91 -1976.05 5800 
2169.5 -1963.08 5800 3065.36 -1963.05 5800 2167.23 -1950.08 5800 
3065.82 -1950.04 5800 2164.96 -1937.07 5800 3066.27 -1937.04 5800 
2162.69 -1924.07 5800 3066.73 -1924.04 5800 2160.42 -1911.07 5800 
3067.19 -1911.04 5800 2158.15 -1898.07 5800 3067.64 -1898.04 5800 
2155.87 -1885.07 5800 3068.1 -1885.04 5800 2153.6 -1872.07 5800 
3068.55 -1872.04 5800 2151.33 -1859.07 5800 3069.01 -1859.04 5800 
2149.06 -1846.07 5800 3069.47 -1846.04 5800 2146.79 -1833.07 5800 
3069.92 -1833.04 5800 2144.52 -1820.07 5800 2145.93 -1828.17 5800 
3070.38 -1820.03 5800 2142.25 -1807.07 5800 3070.83 -1807.03 5800 
2139.98 -1794.06 5800 3071.29 -1794.03 5800 2137.7 -1781.06 5800 
3071.74 -1781.03 5800 2135.43 -1768.06 5800 3072.2 -1768.03 5800 
2133.16 -1755.06 5800 3072.66 -1755.03 5800 2130.89 -1742.06 5800 
3073.11 -1742.03 5800 2128.62 -1729.06 5800 3073.6 -1729.03 5800 
2126.3 -1716.06 5800 3073.97 -1717.43 5800 3074.02 -1716.03 5800 
2123.99 -1703.06 5800 3083.03 -1703.02 5800 2121.68 -1690.06 5800 
3090.62 -1690.02 5800 2119.36 -1677.06 5800 3100.62 -1677.02 5800 
2117.05 -1664.06 5800 3102.98 -1674.12 5800 3111.18 -1664.02 5800 
2114.73 -1651.05 5800 2116.95 -1663.48 5800 3121.75 -1651.02 5800 
2112.42 -1638.05 5800 3131.98 -1638.43 5800 3132.32 -1638.02 5800 
2110.11 -1625.05 5800 3142.89 -1625.02 5800 2107.79 -1612.05 5800 
3153.46 -1612.02 5800 2105.48 -1599.05 5800 3160.99 -1602.75 5800 
3164.02 -1599.01 5800 2103.17 -1586.05 5800 3174.59 -1586.01 5800 
2100.85 -1573.05 5800 3185.16 -1573.01 5800 2102.95 -1560.05 5800 
3189.99 -1567.07 5800 3195.73 -1560.01 5800 2104.67 -1547.05 5800 
3205.57 -1547.01 5800 2106.37 -1534.05 5800 3212.2 -1534.01 5800 
2110.63 -1521.04 5800 3218.01 -1521.01 5800 2113.67 -1508.04 5800 
3218.99 -1518.8 5800 3223.03 -1508 5800 2115.4 -1495.04 5800 
3226.74 -1495 5800 2116.96 -1483.32 5800 2117.05 -1482.04 5800 
3229.61 -1482 5800 2117.89 -1469.04 5800 3231.89 -1469 5800 
2118.21 -1456.04 5800 3233.66 -1456 5800 2117.24 -1443.04 5800 
3234.03 -1443 5800 2115.83 -1430.04 5800 2116.96 -1439.24 5800 
3234.4 -1430 5800 2114.48 -1417.04 5800 3234.77 -1417 5800 
2113.36 -1404.04 5800 3235.14 -1404 5800 2112.42 -1391.03 5800 
3235.51 -1391 5800 2111.61 -1378.03 5800 3235.88 -1377.99 5800 
2110.91 -1365.03 5800 3236.25 -1364.99 5800 2110.29 -1352.03 5800 
3236.61 -1351.99 5800 2109.5 -1339.03 5800 3236.98 -1338.99 5800 
2108.57 -1326.03 5800 3237.35 -1325.99 5800 2107.64 -1313.03 5800 
3237.72 -1312.99 5800 2106.73 -1300.03 5800 3238.09 -1299.99 5800 
2105.82 -1287.03 5800 3238.47 -1286.99 5800 2104.94 -1274.03 5800 
3238.91 -1273.99 5800 2104.12 -1261.02 5800 3239.34 -1260.99 5800 
2103.3 -1248.02 5800 3239.76 -1247.98 5800 2102.48 -1235.02 5800 
3240.18 -1234.98 5800 2101.65 -1222.02 5800 3240.59 -1221.98 5800 
2100.83 -1209.02 5800 3241 -1208.98 5800 2100.01 -1196.02 5800 
3241.4 -1195.98 5800 2099.19 -1183.02 5800 3241.8 -1182.98 5800 
2098.36 -1170.02 5800 3242.29 -1169.98 5800 2097.54 -1157.02 5800 
3242.84 -1156.98 5800 2096.72 -1144.02 5800 3243.39 -1143.98 5800 
2095.9 -1131.01 5800 3243.94 -1130.98 5800 2095.07 -1118.01 5800 
3244.49 -1117.97 5800 2094.25 -1105.01 5800 3245.05 -1104.97 5800 
2093.43 -1092.01 5800 3245.84 -1091.97 5800 2091.44 -1079.01 5800 
3246.85 -1078.97 5800 2088.21 -1066.01 5800 3247.86 -1065.97 5800 
2084.99 -1053.01 5800 2087.99 -1065.1 5800 3248.03 -1063.91 5800 
3248.96 -1052.97 5800 2081.77 -1040.01 5800 3250.06 -1039.97 5800 
2079.41 -1027.01 5800 3251.16 -1026.97 5800 2078.47 -1014.01 5800 
3252.26 -1013.97 5800 2077.8 -1001.01 5800 3253.36 -1000.96 5800 
2079.96 -988.004 5800 3254.46 -987.964 5800 2082.16 -975.003 5800 
3255.55 -974.963 5800 2084.35 -962.002 5800 3256.65 -961.962 5800 
2086.55 -949.001 5800 3257.75 -948.961 5800 2088 -940.393 5800 
2088.73 -936 5800 3258.85 -935.96 5800 2090.89 -922.999 5800 
3259.95 -922.959 5800 2093.07 -909.998 5800 3260.03 -909.958 5800 
2095.25 -896.997 5800 3259.39 -896.957 5800 2097.44 -883.996 5800 
3258.89 -883.956 5800 2099.64 -870.995 5800 2546.54 -870.979 5800 
2552.02 -874.652 5800 2581.02 -883.972 5800 2610.02 -874.583 5800 
2620.63 -870.977 5800 3256.97 -870.955 5800 2101.85 -857.994 5800 
2527.16 -857.979 5800 2639.02 -864.738 5800 2655.94 -857.974 5800 
3254.55 -857.954 5800 2104.07 -844.992 5800 2509.64 -844.978 5800 
2523.02 -855.204 5800 2668.03 -853.142 5800 2697.03 -846.002 5800 
2726.03 -846.961 5800 2728.41 -844.971 5800 3252.13 -844.953 5800 
2106.3 -831.991 5800 2492.8 -831.978 5800 2494.02 -832.986 5800 
2741.91 -831.969 5800 3249.7 -831.952 5800 2108.5 -818.99 5800 
2476.99 -818.978 5800 2752.67 -818.968 5800 3248.05 -823.08 5800 
3247.28 -818.951 5800 2110.7 -805.989 5800 2460.59 -805.977 5800 
2465.02 -809.136 5800 2755.03 -815.717 5800 2760.61 -805.967 5800 
3244.84 -805.95 5800 2112.87 -792.988 5800 2435.89 -792.977 5800 
2436.02 -793.123 5800 2769.29 -792.966 5800 3242.02 -792.949 5800 
2115.07 -779.987 5800 2425.68 -779.976 5800 2782.93 -779.964 5800 
3238.81 -779.948 5800 2117.01 -768.251 5800 2117.18 -766.986 5800 
2417.91 -766.976 5800 2784.04 -778.913 5800 2796.58 -766.963 5800 
3235.88 -766.947 5800 2116.47 -753.985 5800 2117.01 -763.615 5800 
2410.14 -753.975 5800 2810.22 -753.961 5800 3234.22 -753.946 5800 
2114.77 -740.984 5800 2401.56 -740.974 5800 2407.03 -748.762 5800 
2813.04 -751.295 5800 2825.21 -740.96 5800 3232.85 -740.945 5800 
2112.92 -727.983 5800 2393.33 -727.974 5800 2841.14 -727.958 5800 
3231.71 -727.945 5800 2111.09 -714.982 5800 2386.07 -714.973 5800 
2842.04 -727.218 5800 2857.06 -714.956 5800 3230.74 -714.944 5800 
2109.29 -701.981 5800 2379.05 -701.972 5800 2869.4 -701.955 5800 
3230.24 -701.943 5800 2108.26 -688.98 5800 2369.01 -688.971 5800 
2378.03 -700.28 5800 2871.05 -699.559 5800 2875.37 -688.954 5800 
3230.22 -688.942 5800 2109.12 -675.979 5800 2359.99 -675.971 5800 
2880.67 -675.953 5800 3230.19 -675.941 5800 2111.95 -662.978 5800 
2352.15 -662.97 5800 2885.97 -662.951 5800 3230.14 -662.94 5800 
2114.82 -649.977 5800 2345.55 -649.969 5800 2349.03 -657.285 5800 
2891.41 -649.95 5800 3230.08 -649.939 5800 2117.02 -640.119 5800 
2117.69 -636.976 5800 2340.45 -636.968 5800 2896.96 -636.949 5800 
3230.02 -636.938 5800 2120.27 -623.975 5800 2334.54 -623.967 5800 
2900.05 -629.81 5800 2902.65 -623.948 5800 3229.95 -623.937 5800 
2122.87 -610.974 5800 2329.48 -610.967 5800 2908.42 -610.947 5800 
3229.89 -610.936 5800 2125.5 -597.973 5800 2324.73 -597.966 5800 
2914.33 -597.945 5800 3229.83 -597.935 5800 2128.17 -584.972 5800 
2317.43 -584.965 5800 2320.03 -589.2 5800 2922.47 -584.944 5800 
3229.76 -584.934 5800 2129.49 -571.971 5800 2310.99 -571.964 5800 
2929.06 -574.682 5800 2930.65 -571.943 5800 3230.03 -571.933 5800 
2129.44 -558.97 5800 2304.16 -558.964 5800 2937.95 -558.942 5800 
3231.82 -558.932 5800 2129.53 -545.969 5800 2297.46 -545.963 5800 
2944.86 -545.94 5800 3233.6 -545.93 5800 2128.84 -532.968 5800 
2290.96 -532.962 5800 2291.04 -533.112 5800 2558.5 -532.953 5800 
2581.05 -540.367 5800 2596.71 -532.951 5800 2951.46 -532.939 5800 
3235.38 -532.929 5800 2126.72 -519.967 5800 2284.23 -519.961 5800 
2511.35 -519.953 5800 2523.05 -522.521 5800 2552.05 -531.113 5800 
2610.05 -526.114 5800 2621.1 -519.95 5800 2957.66 -519.938 5800 
3237.17 -519.928 5800 2125.39 -506.966 5800 2277.52 -506.96 5800 
2462.89 -506.954 5800 2465.05 -508.916 5800 2494.05 -515.963 5800 
[...]
POINT_DATA 6566
SCALARS Pressure double
LOOKUP_TABLE default
3.0932710339 3.0932710339 3.0932710339 3.0932710339 3.0932710339 3.0932710339 3.0932710339 3.0932710339 3.0932710339 
3.0932710339 3.0932710339 3.0932710339 3.0932710339 3.0932710339 3.0932710339 3.0932710339 3.0932710339 3.0932710339 
3.0932710339 3.0932710339 3.0932710339 3.0932710339 3.0932710339 3.0932710339 3.0932710339 3.0932710339 3.0932710339 
3.0932710339 3.0932710339 3.0932710339 3.0932710339 3.0932710339 3.0932710339 3.0932710339 3.0932710339 3.0932710339 
3.0932710339 3.0932710339 3.0932710339 3.0932710339 3.0932710339 3.0932710339 3.0932710339 3.0932710339 3.0932710339 
3.0932710339 3.0932710339 3.0932710339 3.0932710339 3.0932710339 3.0932710339 3.0932710339 3.0932710339 3.0932710339 
3.0932710339 3.0932710339 3.0932710339 3.0932710339 3.0932710339 3.0932710339 3.0932710339 3.0932710339 3.0932710339 
3.0932710339 3.0932710339 3.0932710339 3.0932710339 3.0932710339 3.0932710339 3.0932710339 3.0932710339 3.0932710339 
3.0932710339 3.0932710339 3.0932710339 3.0932710339 3.0932710339 3.0932710339 3.0932710339 3.0932710339 3.0932710339 
3.0932710339 3.0932710339 3.0932710339 3.0932710339 3.0932710339 3.0932710339 3.0932710339 3.0932710339 3.0932710339 
3.0932710339 3.0932710339 3.0932710339 3.0932710339 3.0932710339 3.0932710339 3.0932710339 3.0932710339 3.0932710339 
3.0932710339 3.0932710339 3.0932710339 3.0932710339 3.0932710339 3.0932710339 3.0932710339 3.0932710339 3.0932710339 
3.0932710339 3.0932710339 3.0932710339 3.0932710339 3.0932710339 3.0932710339 3.0932710339 3.0932710339 3.0932710339 
3.0932710339 3.0932710339 3.0932710339 3.0932710339 3.0932710339 3.0932710339 3.0932710339 3.0932710339 3.0932710339 
3.0932710339 3.0932710339 3.0932710339 3.0932710339 3.0932710339 3.0932710339 3.0932710339 3.0932710339 3.0932710339 
3.0932710339 3.0932710339 3.0932710339 3.0932710339 3.0932710339 3.0932710339 3.0932710339 3.0932710339 3.0932710339 
3.0932710339 3.0932710339 3.0932710339 3.0932710339 3.0932710339 3.0932710339 3.0932710339 3.0932710339 3.0932710339 
3.0932710339 3.0932710339 3.0932710339 3.0932710339 3.0932710339 3.0932710339 3.0932710339 3.0932710339 3.0932710339 
3.0932710339 3.0932710339 3.0932710339 3.0932710339 3.0932710339 3.0932710339 3.0932710339 3.0932710339 3.0932710339 
3.0932710339 3.0932710339 3.0932710339 3.0932710339 3.0932710339 3.0932710339 3.0932710339 3.0932710339 3.0932710339 
3.0932710339 3.0932710339 3.0932710339 3.0932710339 3.0932710339 3.0932710339 3.0932710339 3.0932710339 3.0932710339 
3.0932710339 3.0932710339 3.0932710339 3.0932710339 3.0932710339 3.0932710339 3.0932710339 3.0932710339 3.0932710339 
3.0932710339 3.0932710339 3.0932710339 3.0932710339 3.0932710339 3.0932710339 3.0932710339 3.0932710339 3.0932710339 
3.0932710339 3.0932710339 3.0932710339 3.0932710339 3.0932710339 3.0932710339 3.0932710339 3.0932710339 3.0932710339 
3.0932710339 3.0932710339 3.0932710339 3.0932710339 3.0932710339 3.0932710339 3.0932710339 3.0932710339 3.0932710339 
3.0932710339 3.0932710339 3.0932710339 3.0932710339 3.0932710339 3.0932710339 3.0932710339 3.0932710339 3.0932710339 
3.0932710339 3.0932710339 3.0932710339 3.0932710339 3.0932710339 3.0932710339 3.0932710339 3.0932710339 3.0932710339 
3.0932710339 3.0932710339 3.0932710339 3.0932710339 3.0932710339 3.0932710339 3.0932710339 3.0932710339 3.0932710339 
3.0932710339 3.0932710339 3.0932710339 3.0932710339 3.0932710339 3.0932710339 3.0932710339 3.0932710339 3.0932710339 
3.0932710339 3.0932710339 3.0932710339 3.0932710339 3.0932710339 3.0932710339 3.0932710339 3.0932710339 3.0932710339 
3.0932710339 3.0932710339 3.0932710339 3.0932710339 3.0932710339 3.0932710339 3.0932710339 3.0932710339 3.0932710339 
3.0932710339 3.0932710339 3.0932710339 3.0932710339 3.0932710339 3.0932710339 3.0932710339 3.0932710339 3.0932710339 
3.0932710339 3.0932710339 3.0932710339 3.0932710339 3.0932710339 3.0932710339 3.0932710339 3.0932710339 3.0932710339 
3.0932710339 3.0932710339 3.1078652246 3.1078652246 3.1078652246 3.1078652246 3.1078652246 3.0932710339 3.0932710339 
3.1078652246 3.1078652246 3.1078652246 3.0932710339 3.0932710339 3.1078652246 3.1078652246 3.1078652246 3.1078652246 
3.1078652246 3.1078652246 3.0932710339 3.0932710339 3.1078652246 3.1078652246 3.1078652246 3.0932710339 3.0932710339 
3.1078652246 3.1078652246 3.0932710339 3.0932710339 3.0932710339 3.1078652246 3.1078652246 3.1078652246 3.1078652246 
3.0932710339 3.0932710339 3.1078652246 3.1078652246 3.1078652246 3.0932710339 3.0932710339 3.1078652246 3.1078652246 
3.0932710339 3.0932710339 3.0932710339 3.1078652246 3.1078652246 3.1078652246 3.0932710339 3.0932710339 3.0932710339 
3.1078652246 3.1078652246 3.0932710339 3.0932710339 3.1078652246 3.1078652246 3.1078652246 3.1078652246 3.0932710339 
3.0932710339 3.1078652246 3.1078652246 3.0932710339 3.0932710339 3.1078652246 3.1078652246 3.1078652246 3.0932710339 
3.0932710339 3.1078652246 3.1078652246 3.0932710339 3.0932710339 3.1078652246 3.1078652246 3.1078652246 3.1078652246 
3.0932710339 3.0932710339 3.1078652246 3.1078652246 3.0932710339 3.0932710339 3.1078652246 3.1078652246 3.0932710339 
3.0932710339 3.1078652246 3.1078652246 3.1078652246 3.0932710339 3.0932710339 3.0932710339 3.1078652246 3.1078652246 
3.0932710339 3.0932710339 3.1078652246 3.1078652246 3.1078652246 3.0932710339 3.0932710339 3.1078652246 3.1078652246 
3.0932710339 3.0932710339 3.1078652246 3.1078652246 3.0932710339 3.0932710339 3.1078652246 3.1078652246 3.1078652246 
3.0932710339 3.0932710339 3.1078652246 3.1078652246 3.1078652246 3.0932710339 3.0932710339 3.1078652246 3.1078652246 
3.0932710339 3.0932710339 3.1078652246 3.1078652246 3.0932710339 3.0932710339 3.1078652246 3.1078652246 3.1224594153 
3.1224594153 3.1224594153 3.1078652246 3.0932710339 3.0932710339 3.1078652246 3.1224594153 3.1224594153 3.1224594153 
3.1224594153 3.1224594153 3.1078652246 3.0932710339 3.0932710339 3.1078652246 3.1224594153 3.1224594153 3.1224594153 
3.1224594153 3.1224594153 3.1078652246 3.1078652246 3.0932710339 3.0786768432 3.0786768432 3.0786768432 3.0786768432 
3.0786768432 3.0786768432 3.0786768432 3.0786768432 3.0786768432 3.0786768432 3.0786768432 3.0786768432 3.0932710339 
3.1078652246 3.1224594153 3.1224594153 3.1078652246 3.0932710339 3.0786768432 3.0786768432 3.0786768432 3.0786768432 
3.0786768432 3.0786768432 3.0786768432 3.0786768432 3.0786768432 3.0932710339 3.1078652246 3.1224594153 3.1224594153 
3.1224594153 3.1078652246 3.0932710339 3.0786768432 3.0786768432 3.0786768432 3.0786768432 3.0786768432 3.0932710339 
3.1078652246 3.1224594153 3.1224594153 3.1224594153 3.1224594153 3.1078652246 3.0932710339 3.0786768432 3.0786768432 
3.0786768432 3.0786768432 3.0786768432 3.0786768432 3.0786768432 3.0932710339 3.1078652246 3.1078652246 3.1224594153 
3.1224594153 3.1078652246 3.1078652246 3.0932710339 3.0786768432 3.0786768432 3.0786768432 3.0786768432 3.0786768432 
3.0932710339 3.1078652246 3.1224594153 3.1224594153 3.1224594153 3.1224594153 3.1078652246 3.0932710339 3.0786768432 
3.0786768432 3.0786768432 3.0786768432 3.0786768432 3.0786768432 3.0786768432 3.0786768432 3.0932710339 3.1078652246 
3.1224594153 3.1224594153 3.1078652246 3.0932710339 3.0932710339 3.0786768432 3.0786768432 3.0786768432 3.0786768432 
3.0932710339 3.1078652246 3.1224594153 3.1224594153 3.1224594153 3.1078652246 3.0932710339 3.0786768432 3.0786768432 
3.0786768432 3.0786768432 3.0786768432 3.0932710339 3.1078652246 3.1224594153 3.1224594153 3.1224594153 3.1078652246 
3.0932710339 3.0786768432 3.0786768432 3.0786768432 3.0786768432 3.0786768432 3.0932710339 3.1078652246 3.1224594153 
3.1224594153 3.1078652246 3.1078652246 3.0932710339 3.0786768432 3.0786768432 3.0786768432 3.0786768432 3.0786768432 
3.0786768432 3.0786768432 3.0786768432 3.0932710339 3.0932710339 3.1078652246 3.1224594153 3.1224594153 3.1224594153 
3.1078652246 3.0932710339 3.0786768432 3.0786768432 3.0786768432 3.0786768432 3.0786768432 3.0932710339 3.1078652246 
3.1224594153 3.1224594153 3.1224594153 3.1078652246 3.0932710339 3.0786768432 3.0786768432 3.0786768432 3.0786768432 
3.0786768432 3.0932710339 3.1078652246 3.1224594153 3.1224594153 3.1078652246 3.0932710339 3.0786768432 3.0786768432 
3.0786768432 3.0786768432 3.0932710339 3.1078652246 3.1224594153 3.137053606 3.137053606 3.137053606 3.1224594153 
3.1224594153 3.1078652246 3.0932710339 3.0786768432 3.0786768432 3.0786768432 3.0786768432 3.0786768432 3.0786768432 
3.0786768432 3.0932710339 3.1078652246 3.1224594153 3.137053606 3.137053606 3.137053606 3.137053606 3.137053606 
3.1224594153 3.1078652246 3.0932710339 3.0786768432 3.0786768432 3.0786768432 3.0786768432 3.0932710339 3.1078652246 
3.1078652246 3.1224594153 3.1224594153 3.137053606 3.137053606 3.137053606 3.137053606 3.1224594153 3.1078652246 
3.1078652246 3.0932710339 3.0786768432 3.0786768432 3.0786768432 3.0786768432 3.0786768432 3.0932710339 3.1078652246 
3.1224594153 3.137053606 3.137053606 3.137053606 3.1224594153 3.1078652246 3.0932710339 3.0786768432 3.0786768432 
3.0786768432 3.0786768432 3.0786768432 3.0786768432 3.0932710339 3.1078652246 3.1224594153 3.137053606 3.137053606 
3.137053606 3.137053606 3.1224594153 3.1224594153 3.1078652246 3.0932710339 3.0786768432 3.0786768432 3.0786768432 
3.0786768432 3.0786768432 3.0932710339 3.1078652246 3.1224594153 3.137053606 3.137053606 3.1224594153 3.1078652246 
3.0932710339 3.0786768432 3.0786768432 3.0786768432 3.0786768432 3.0932710339 3.1078652246 3.1224594153 3.1224594153 
3.137053606 3.137053606 3.1224594153 3.1078652246 3.0932710339 3.0786768432 3.0786768432 3.0786768432 3.0786768432 
3.0786768432 3.0932710339 3.1078652246 3.1224594153 3.137053606 3.137053606 3.137053606 3.137053606 3.1224594153 
3.1078652246 3.0932710339 3.0786768432 3.0786768432 3.0786768432 3.0786768432 3.0932710339 3.1078652246 3.1224594153 
3.137053606 3.137053606 3.1224594153 3.1078652246 3.0932710339 3.0786768432 3.0786768432 3.0786768432 3.0786768432 
3.0786768432 3.0932710339 3.1078652246 3.1224594153 3.137053606 3.137053606 3.137053606 3.1224594153 3.1078652246 
3.0932710339 3.0786768432 3.0786768432 3.0786768432 3.0640826525 3.0640826525 3.0640826525 3.0786768432 3.0932710339 
3.1078652246 3.1224594153 3.1224594153 3.137053606 3.137053606 3.137053606 3.1224594153 3.1224594153 3.1078652246 
3.0932710339 3.0786768432 3.0786768432 3.0786768432 3.0786768432 3.0786768432 3.0640826525 3.0640826525 3.0640826525 
3.0640826525 3.0640826525 3.0640826525 3.0640826525 3.0786768432 3.0932710339 3.1078652246 3.1078652246 3.1224594153 
3.137053606 3.1516477967 3.1516477967 3.1516477967 3.137053606 3.1224594153 3.1078652246 3.0932710339 3.0786768432 
3.0786768432 3.0786768432 3.0786768432 3.0640826525 3.0640826525 3.0640826525 3.0640826525 3.0786768432 3.0932710339 
3.1078652246 3.1224594153 3.137053606 3.137053606 3.1516477967 3.1516477967 3.1516477967 3.1516477967 3.1516477967 
3.137053606 3.1224594153 3.1078652246 3.0932710339 3.0786768432 3.0786768432 3.0786768432 3.0640826525 3.0640826525 
3.0786768432 3.0932710339 3.1078652246 3.1224594153 3.137053606 3.1516477967 3.1516477967 3.1516477967 3.1516477967 
3.137053606 3.1224594153 3.1078652246 3.0932710339 3.0786768432 3.0786768432 3.0786768432 3.0640826525 3.0640826525 
3.0640826525 3.0786768432 3.0932710339 3.1078652246 3.1224594153 3.137053606 3.137053606 3.1516477967 3.1516477967 
3.137053606 3.1224594153 3.1078652246 3.0932710339 3.0786768432 3.0786768432 3.0786768432 3.0786768432 3.0640826525 
3.0640826525 3.0640826525 3.0786768432 3.0932710339 3.1078652246 3.1224594153 3.1224594153 3.137053606 3.1516477967 
3.1516477967 3.1516477967 3.1516477967 3.137053606 3.1224594153 3.1078652246 3.0932710339 3.0786768432 3.0786768432 
3.0786768432 3.0786768432 3.0640826525 3.0640826525 3.0786768432 3.0786768432 3.0932710339 3.1078652246 3.1224594153 
3.137053606 3.1516477967 3.1516477967 3.1516477967 3.137053606 3.1224594153 3.1078652246 3.0932710339 3.0786768432 
3.0786768432 3.0786768432 3.0786768432 3.0786768432 3.0786768432 3.0786768432 3.0786768432 3.0640826525 3.0640826525 
3.0786768432 3.0932710339 3.1078652246 3.1224594153 3.137053606 3.137053606 3.1516477967 3.1516477967 3.137053606 
3.1224594153 3.1078652246 3.0932710339 3.0786768432 3.0786768432 3.0786768432 3.0786768432 3.0786768432 3.0640826525 
3.0640826525 3.0494884618 3.0494884618 3.0494884618 3.0494884618 3.0494884618 3.0640826525 3.0640826525 3.0786768432 
3.0932710339 3.1078652246 3.1224594153 3.137053606 3.1516477967 3.1516477967 3.1516477967 3.137053606 3.1224594153 
3.1078652246 3.0932710339 3.0932710339 3.0786768432 3.0786768432 3.0786768432 3.0786768432 3.0640826525 3.0494884618 
3.0494884618 3.0494884618 3.0494884618 3.0640826525 3.0786768432 3.0932710339 3.1078652246 3.1224594153 3.1224594153 
3.137053606 3.1516477967 3.1516477967 3.137053606 3.1224594153 3.1078652246 3.0932710339 3.0786768432 3.0640826525 
3.0640826525 3.0640826525 3.0640826525 3.0786768432 3.0786768432 3.0786768432 3.0786768432 3.0640826525 3.0494884618 
3.0494884618 3.0640826525 3.0786768432 3.0932710339 3.1078652246 3.1078652246 3.1224594153 3.137053606 3.1516477967 
3.1516477967 3.1516477967 3.137053606 3.1224594153 3.1078652246 3.0932710339 3.0786768432 3.0786768432 3.0640826525 
3.0640826525 3.0640826525 3.0786768432 3.0786768432 3.0640826525 3.0494884618 3.0494884618 3.0494884618 3.0640826525 
3.0786768432 3.0932710339 3.0932710339 3.1078652246 3.1224594153 3.137053606 3.137053606 3.1516477967 3.1516477967 
3.137053606 3.1224594153 3.1224594153 3.1078652246 3.0932710339 3.0786768432 3.0640826525 3.0640826525 3.0640826525 
3.0640826525 3.0786768432 3.0786768432 3.0786768432 3.0786768432 3.0640826525 3.0494884618 3.0348942711 3.0348942711 
3.0348942711 3.0348942711 3.0348942711 3.0494884618 3.0494884618 3.0640826525 3.0786768432 3.0932710339 3.1078652246 
3.1224594153 3.137053606 3.1516477967 2.9473291268 2.9473291268 2.9619233175 2.9619233175 2.9765175082 2.9765175082 
2.991111699 2.991111699 3.0057058897 3.0057058897 3.0203000804 3.0203000804 3.0348942711 3.0348942711 3.0494884618 
3.0494884618 3.0640826525 3.0640826525 3.0786768432 3.0786768432 3.0932710339 3.0932710339 3.1078652246 3.1078652246 
3.1224594153 3.1224594153 3.137053606 3.137053606 3.1516477967 3.1516477967 2.9473291268 2.9619233175 2.9765175082 
2.991111699 3.0057058897 3.0203000804 3.0348942711 3.0494884618 3.0640826525 3.0786768432 3.0932710339 3.1078652246 
3.1224594153 3.137053606 3.1516477967 2.9473291268 2.9619233175 2.9765175082 2.991111699 3.0057058897 3.0203000804 
3.0348942711 3.0494884618 3.0640826525 3.0786768432 3.0932710339 3.1078652246 3.1224594153 3.137053606 3.1516477967 
2.9473291268 2.9619233175 2.9765175082 2.991111699 3.0057058897 3.0203000804 3.0348942711 3.0494884618 3.0640826525 
3.0786768432 3.0932710339 3.1078652246 3.1224594153 3.137053606 3.1516477967 2.9473291268 2.9619233175 2.9765175082 
2.991111699 3.0057058897 3.0203000804 3.0348942711 3.0494884618 3.0640826525 3.0786768432 3.0932710339 3.1078652246 
3.1224594153 3.137053606 3.1516477967 2.9473291268 2.9619233175 2.9765175082 2.991111699 3.0057058897 3.0203000804 
3.0348942711 3.0494884618 3.0640826525 3.0786768432 3.0932710339 3.1078652246 3.1224594153 3.137053606 3.1516477967 
2.9473291268 2.9619233175 2.9765175082 2.991111699 3.0057058897 3.0203000804 3.0348942711 3.0494884618 3.0640826525 
3.0786768432 3.0932710339 3.1078652246 3.1224594153 3.137053606 3.1516477967 2.9473291268 2.9619233175 2.9765175082 
2.991111699 3.0057058897 3.0203000804 3.0348942711 3.0494884618 3.0640826525 3.0786768432 3.0932710339 3.1078652246 
3.1224594153 3.137053606 3.1516477967 2.9473291268 2.9619233175 2.9765175082 2.991111699 3.0057058897 3.0203000804 
3.0348942711 3.0494884618 3.0640826525 3.0786768432 3.0932710339 3.1078652246 3.1224594153 3.137053606 3.1516477967 
2.9473291268 2.9619233175 2.9765175082 2.991111699 3.0057058897 3.0203000804 3.0348942711 3.0494884618 3.0640826525 
3.0786768432 3.0932710339 3.1078652246 3.1224594153 3.137053606 2.9473291268 2.9619233175 2.9765175082 2.991111699 
3.0057058897 3.0203000804 3.0348942711 3.0494884618 3.0640826525 3.0786768432 3.0932710339 3.1078652246 3.1224594153 
3.137053606 2.9473291268 2.9619233175 2.9765175082 2.991111699 3.0057058897 3.0203000804 3.0348942711 3.0494884618 
3.0640826525 3.0786768432 3.0932710339 3.1078652246 3.1224594153 3.137053606 2.9473291268 2.9619233175 2.9765175082 
2.991111699 3.0057058897 3.0203000804 3.0348942711 3.0494884618 3.0640826525 3.0786768432 3.0932710339 3.1078652246 
3.1224594153 3.137053606 3.137053606 3.1224594153 3.1078652246 3.0932710339 3.0786768432 3.0640826525 3.0640826525 
3.0640826525 3.0786768432 3.0786768432 3.0640826525 3.0494884618 3.0348942711 3.0348942711 3.0494884618 3.0640826525 
3.0786768432 3.0932710339 3.1078652246 3.1224594153 2.9473291268 2.9473291268 2.9619233175 2.9619233175 2.9765175082 
2.9765175082 2.991111699 2.991111699 3.0057058897 3.0057058897 3.0203000804 3.0203000804 3.0348942711 3.0348942711 
3.0494884618 3.0494884618 3.0640826525 3.0640826525 3.0786768432 3.0786768432 3.0932710339 3.0932710339 3.1078652246 
3.1078652246 3.1224594153 3.1224594153 3.137053606 2.9473291268 2.9619233175 2.9765175082 2.991111699 3.0057058897 
3.0203000804 3.0348942711 3.0494884618 3.0640826525 3.0786768432 3.0932710339 3.1078652246 3.1224594153 3.137053606 
2.9473291268 2.9619233175 2.9765175082 2.991111699 3.0057058897 3.0203000804 3.0348942711 3.0494884618 3.0640826525 
3.0786768432 3.0932710339 3.1078652246 3.1224594153 3.137053606 3.1516477967 2.9473291268 2.9619233175 2.9765175082 
2.991111699 3.0057058897 3.0203000804 3.0348942711 3.0494884618 3.0640826525 3.0786768432 3.0932710339 3.1078652246 
3.1224594153 3.137053606 3.1516477967 2.9473291268 2.9619233175 2.9765175082 2.991111699 3.0057058897 3.0203000804 
3.0348942711 3.0494884618 3.0640826525 3.0786768432 3.0932710339 3.1078652246 3.1224594153 3.137053606 2.9473291268 
2.9619233175 2.9765175082 2.991111699 3.0057058897 3.0203000804 3.0348942711 3.0494884618 3.0640826525 3.0786768432 
3.0932710339 3.1078652246 3.1224594153 2.9473291268 2.9619233175 2.9765175082 2.991111699 3.0057058897 3.0203000804 
3.0348942711 3.0494884618 3.0640826525 3.0786768432 3.0932710339 3.1078652246 3.1224594153 2.9473291268 2.9619233175 
2.9765175082 2.991111699 3.0057058897 3.0203000804 3.0348942711 3.0494884618 3.0640826525 3.0786768432 3.0932710339 
3.1078652246 3.1224594153 2.9473291268 2.9619233175 2.9765175082 2.991111699 3.0057058897 3.0203000804 3.0348942711 
3.0494884618 3.0640826525 3.0786768432 3.0932710339 3.1078652246 3.1224594153 2.9473291268 2.9619233175 2.9765175082 
2.991111699 3.0057058897 3.0203000804 3.0348942711 3.0494884618 3.0640826525 3.0786768432 3.0932710339 3.1078652246 
3.1224594153 2.9473291268 2.9619233175 2.9765175082 2.991111699 3.0057058897 3.0203000804 3.0348942711 3.0494884618 
3.0640826525 3.0786768432 3.0932710339 3.1078652246 2.9473291268 2.9619233175 2.9765175082 2.991111699 3.0057058897 
3.0203000804 3.0348942711 3.0494884618 3.0640826525 3.0786768432 3.0932710339 3.1078652246 3.1078652246 3.0932710339 
3.0786768432 3.0640826525 3.0640826525 3.0640826525 3.0786768432 3.0786768432 3.0786768432 3.0640826525 3.0494884618 
3.0348942711 3.0348942711 3.0203000804 3.0203000804 3.0203000804 3.0348942711 3.0494884618 3.0640826525 3.0786768432 
3.0932710339 2.9473291268 2.9473291268 2.9619233175 2.9619233175 2.9765175082 2.9765175082 2.991111699 2.991111699 
3.0057058897 3.0057058897 3.0203000804 3.0203000804 3.0348942711 3.0348942711 3.0494884618 3.0494884618 3.0640826525 
3.0640826525 3.0786768432 3.0786768432 3.0932710339 3.0932710339 3.1078652246 2.9473291268 2.9619233175 2.9765175082 
2.991111699 3.0057058897 3.0203000804 3.0348942711 3.0494884618 3.0640826525 3.0786768432 3.0932710339 3.1078652246 
3.1224594153 2.9473291268 2.9619233175 2.9765175082 2.991111699 3.0057058897 3.0203000804 3.0348942711 3.0494884618 