# vtk DataFile Version 4.2
vtk output
ASCII
DATASET POLYDATA
POINTS 7428 float
1618.36 -2890.13 0 1627.87 -2893.57 0 1641.52 -2890.13 0 
1567.88 -2873.13 0 1590.87 -2881.81 0 1664.88 -2881.57 0 
1701.88 -2876.56 0 1727.22 -2873.12 0 1522.87 -2856.13 0 
1553.87 -2867.84 0 1738.88 -2871.54 0 1775.88 -2866.53 0 
1812.88 -2861.51 0 1849.88 -2856.5 0 1852.68 -2856.12 0 
1477.85 -2839.13 0 1479.87 -2839.89 0 1516.87 -2853.86 0 
1886.88 -2851.48 0 1923.88 -2846.47 0 1960.89 -2841.45 0 
1978.14 -2839.11 0 1432.84 -2822.13 0 1442.87 -2825.92 0 
1997.89 -2836.44 0 2034.89 -2831.42 0 2071.89 -2826.41 0 
2103.6 -2822.11 0 1387.83 -2805.13 0 1405.87 -2811.94 0 
2108.89 -2821.39 0 2145.89 -2816.38 0 2182.89 -2811.36 0 
2190.65 -2805.11 0 1342.82 -2788.13 0 1368.87 -2797.97 0 
2203.42 -2788.1 0 1297.81 -2771.13 0 1331.87 -2783.99 0 
2210.48 -2771.1 0 1252.79 -2754.13 0 1257.87 -2756.05 0 
1294.87 -2770.02 0 2214.62 -2754.1 0 1207.78 -2737.13 0 
1220.87 -2742.07 0 2217.57 -2737.1 0 1162.77 -2720.13 0 
1183.87 -2728.1 0 2219.9 -2723.68 0 2220.52 -2720.1 0 
1117.76 -2703.13 0 1146.87 -2714.12 0 2223.47 -2703.1 0 
1086.62 -2686.13 0 1109.87 -2700.15 0 2226.42 -2686.1 0 
1063.19 -2669.13 0 1072.87 -2676.23 0 2229.37 -2669.1 0 
1040.01 -2652.13 0 2232.32 -2652.1 0 1016.84 -2635.13 0 
1035.87 -2649.09 0 2235.26 -2635.09 0 993.657 -2618.13 0 
998.873 -2621.95 0 2238.21 -2618.09 0 970.48 -2601.13 0 
2241.16 -2601.09 0 957.289 -2584.13 0 961.873 -2594.81 0 
2244.11 -2584.09 0 950.138 -2567.13 0 2247.06 -2567.09 0 
943.156 -2550.12 0 2250.01 -2550.09 0 936.337 -2533.12 0 
2252.96 -2533.09 0 929.676 -2516.12 0 2255.91 -2516.09 0 
923.232 -2499.12 0 924.878 -2503.63 0 2256.91 -2510.27 0 
2258.85 -2499.09 0 917.024 -2482.12 0 2261.8 -2482.08 0 
910.816 -2465.12 0 2264.75 -2465.08 0 904.608 -2448.12 0 
2267.7 -2448.08 0 898.4 -2431.12 0 2270.65 -2431.08 0 
892.192 -2414.12 0 2273.6 -2414.08 0 885.984 -2397.12 0 
887.883 -2402.32 0 2276.55 -2397.08 0 879.776 -2380.12 0 
2279.49 -2380.08 0 873.568 -2363.12 0 2282.44 -2363.08 0 
867.36 -2346.11 0 2285.39 -2346.08 0 861.152 -2329.11 0 
2288.34 -2329.08 0 854.944 -2312.11 0 2291.29 -2312.07 0 
848.736 -2295.11 0 850.888 -2301 0 2293.93 -2296.86 0 
2294.24 -2295.07 0 842.528 -2278.11 0 2297.19 -2278.07 0 
836.32 -2261.11 0 2300.13 -2261.07 0 830.112 -2244.11 0 
2307.88 -2244.07 0 823.904 -2227.11 0 2320.23 -2227.07 0 
817.696 -2210.11 0 2330.93 -2212.33 0 2332.58 -2210.07 0 
811.488 -2193.11 0 813.893 -2199.69 0 2344.93 -2193.07 0 
805.28 -2176.11 0 2357.28 -2176.06 0 799.072 -2159.11 0 
2367.94 -2161.39 0 2369.63 -2159.06 0 792.864 -2142.1 0 
2381.98 -2142.06 0 789.011 -2125.1 0 2394.33 -2125.06 0 
786.686 -2108.1 0 2404.94 -2110.45 0 2406.68 -2108.06 0 
784.531 -2091.1 0 2419.03 -2091.06 0 782.376 -2074.1 0 
2431.38 -2074.06 0 780.221 -2057.1 0 2441.94 -2059.51 0 
2443.73 -2057.05 0 778.066 -2040.1 0 2456.08 -2040.05 0 
775.911 -2023.1 0 776.902 -2030.92 0 2464.04 -2023.05 0 
773.756 -2006.1 0 2466.29 -2006.05 0 771.601 -1989.1 0 
2467.64 -1989.05 0 769.446 -1972.1 0 2466.94 -1972.05 0 
767.291 -1955.09 0 2465.82 -1955.05 0 765.135 -1938.09 0 
2464.69 -1938.05 0 762.981 -1921.09 0 2463.57 -1921.05 0 
760.825 -1904.09 0 2462.44 -1904.05 0 758.67 -1887.09 0 
2461.32 -1887.04 0 756.515 -1870.09 0 2460.19 -1870.04 0 
754.36 -1853.09 0 2459.07 -1853.04 0 752.205 -1836.09 0 
2457.94 -1836.04 0 750.05 -1819.09 0 2456.81 -1819.04 0 
747.758 -1802.09 0 2455.69 -1802.04 0 744.81 -1785.08 0 
2454.56 -1785.04 0 742.608 -1768.08 0 2453.44 -1768.04 0 
738.529 -1751.08 0 739.917 -1756.02 0 2452.31 -1751.04 0 
731.907 -1734.08 0 2451.19 -1734.04 0 726.889 -1717.08 0 
2450.06 -1717.03 0 721.257 -1700.08 0 2448.94 -1700.03 0 
714.94 -1683.08 0 2447.81 -1683.03 0 706.965 -1666.08 0 
2446.69 -1666.03 0 699.834 -1649.08 0 702.921 -1658.22 0 
2445.56 -1649.03 0 -444.108 -1634.02 0 -460.337 -1632.11 0 
-437.983 -1632.11 0 696.232 -1632.08 0 2444.44 -1632.03 0 
-481.109 -1629.89 0 -508.811 -1615.11 0 -407.106 -1622.48 0 
-383.483 -1615.11 0 692.632 -1615.08 0 2443.31 -1615.03 0 
-518.109 -1610.15 0 -540.664 -1598.11 0 -370.105 -1610.93 0 
-333.103 -1599.39 0 -328.984 -1598.1 0 689.033 -1598.08 0 
2442.83 -1598.03 0 -555.109 -1590.4 0 -572.516 -1581.11 0 
-296.101 -1587.84 0 -274.485 -1581.1 0 685.433 -1581.07 0 
2443.86 -1581.03 0 -592.108 -1570.65 0 -604.368 -1564.11 0 
-259.1 -1576.3 0 -222.098 -1564.76 0 -219.986 -1564.1 0 
681.833 -1564.07 0 2444.92 -1564.03 0 -629.108 -1550.9 0 
-636.22 -1547.11 0 -185.096 -1553.21 0 -166.014 -1547.1 0 
678.233 -1547.07 0 2445.98 -1547.02 0 -666.108 -1531.16 0 
-668.072 -1530.11 0 -148.095 -1541.46 0 -113.514 -1530.09 0 
674.633 -1530.07 0 2447.04 -1530.02 0 -699.925 -1513.11 0 
-111.093 -1529.32 0 -74.0912 -1516.93 0 -70.2404 -1513.09 0 
671.033 -1513.07 0 2448.1 -1513.02 0 -703.108 -1511.41 0 
-731.777 -1496.11 0 -52.5124 -1496.09 0 667.433 -1496.07 0 
2449.16 -1496.02 0 -740.108 -1491.66 0 -754.639 -1479.11 0 
-37.0881 -1480.25 0 -36.4676 -1479.09 0 663.833 -1479.07 0 
665.93 -1488.97 0 2450.22 -1479.02 0 -767.331 -1462.11 0 
-25.1054 -1462.09 0 660.234 -1462.07 0 2451.28 -1462.02 0 
-777.106 -1447.94 0 -779.062 -1445.11 0 -13.3608 -1445.09 0 
656.634 -1445.07 0 2452.34 -1445.02 0 -790.794 -1428.11 0 
-0.775434 -1428.08 0 653.034 -1428.07 0 2453.4 -1428.02 0 
-802.525 -1411.1 0 -0.0839451 -1427.15 0 11.8099 -1411.08 0 
649.434 -1411.07 0 2454.46 -1411.02 0 -814.104 -1394.33 0 
-814.257 -1394.1 0 24.3951 -1394.08 0 645.834 -1394.06 0 
1428.18 -1394.04 0 1442.96 -1394.4 0 1479.96 -1395.29 0 
1516.96 -1396.19 0 1520.98 -1394.04 0 2455.52 -1394.02 0 
-825.988 -1377.1 0 36.92 -1377.16 0 36.9805 -1377.08 0 
642.234 -1377.06 0 1341.49 -1377.04 0 1368.96 -1388.73 0 
1405.96 -1393.51 0 1544.3 -1377.04 0 2456.58 -1377.01 0 
-837.719 -1360.1 0 49.5658 -1360.08 0 638.634 -1360.06 0 
1301.54 -1360.04 0 1331.96 -1372.99 0 1553.96 -1368.45 0 
1563.42 -1360.04 0 2457.64 -1360.01 0 -849.451 -1343.1 0 
62.1511 -1343.08 0 635.034 -1343.06 0 1261.58 -1343.04 0 
1294.96 -1357.24 0 1582.53 -1343.04 0 2458.7 -1343.01 0 
-851.102 -1340.71 0 -861.182 -1326.1 0 73.9239 -1327.17 0 
74.7364 -1326.08 0 631.435 -1326.06 0 1221.62 -1326.05 0 
1257.96 -1341.5 0 1590.96 -1335.53 0 1601.64 -1326.03 0 
2459.76 -1326.01 0 -872.914 -1309.1 0 87.3217 -1309.07 0 
625.835 -1309.06 0 628.939 -1318.51 0 1198.86 -1309.04 0 
1220.95 -1325.76 0 1620.76 -1309.03 0 2460.82 -1309.01 0 
-884.645 -1292.1 0 99.907 -1292.07 0 616.228 -1292.06 0 
1174.95 -1292.04 0 1183.96 -1299.66 0 1627.97 -1302.62 0 
1639.87 -1292.03 0 2461.88 -1292.01 0 -888.1 -1287.09 0 
-896.376 -1275.1 0 110.928 -1277.19 0 112.492 -1275.07 0 
606.621 -1275.06 0 1151.3 -1275.04 0 1658.98 -1275.03 0 
2461.11 -1275.01 0 -908.108 -1258.1 0 125.078 -1258.07 0 
597.014 -1258.06 0 1126.03 -1258.04 0 1146.96 -1272.12 0 
1664.97 -1269.71 0 1679.02 -1258.03 0 2459.45 -1258.01 0 
-919.839 -1241.1 0 137.663 -1241.07 0 588.855 -1241.06 0 
591.943 -1248.68 0 1100.76 -1241.04 0 1109.96 -1247.23 0 
1701.97 -1245.09 0 1706.24 -1241.03 0 2458.17 -1241.01 0 
-925.098 -1233.48 0 -931.571 -1224.1 0 147.932 -1227.2 0 
149.332 -1224.07 0 584.933 -1224.06 0 1075.49 -1224.04 0 
1721.57 -1224.03 0 2454.9 -1224.01 0 -943.302 -1207.1 0 
153.449 -1207.07 0 581.012 -1207.06 0 1050.21 -1207.04 0 
1072.96 -1222.34 0 1733.84 -1207.02 0 2451.4 -1207 0 
-955.034 -1190.1 0 155.44 -1190.07 0 577.091 -1190.05 0 
1024.94 -1190.04 0 1035.96 -1197.45 0 1738.98 -1199.28 0 
1745.7 -1190.02 0 2449.19 -1190 0 -962.095 -1179.86 0 
-966.765 -1173.1 0 157.43 -1173.06 0 573.169 -1173.05 0 
999.671 -1173.04 0 1757.72 -1173.02 0 2448.39 -1173 0 
-978.496 -1156.09 0 159.421 -1156.06 0 569.248 -1156.05 0 
984.621 -1156.04 0 998.958 -1172.56 0 1769.34 -1156.02 0 
2448.11 -1156 0 -990.228 -1139.09 0 161.411 -1139.06 0 
565.327 -1139.05 0 969.792 -1139.04 0 1775.98 -1146.04 0 
1780.93 -1139.02 0 2447.84 -1139 0 -999.093 -1126.24 0 
-1001.95 -1122.09 0 163.401 -1122.06 0 561.406 -1122.05 0 
956.867 -1122.04 0 961.96 -1130.1 0 1792.91 -1122.02 0 
2447.61 -1122 0 -1020.6 -1105.09 0 165.392 -1105.06 0 
557.484 -1105.05 0 946.904 -1105.04 0 1804.89 -1105.02 0 
2447.45 -1105 0 -1030.48 -1088.09 0 167.382 -1088.06 0 
553.554 -1088.05 0 554.951 -1094.07 0 937.76 -1088.04 0 
1812.98 -1093.54 0 1816.88 -1088.01 0 2447.29 -1088 0 
-1034.25 -1071.09 0 169.471 -1071.06 0 549.61 -1071.05 0 
928.377 -1071.04 0 1828.86 -1071.01 0 2447.13 -1071 0 
-1036.09 -1058.31 0 -1036.79 -1054.09 0 176.318 -1054.06 0 
545.67 -1054.05 0 914.462 -1054.04 0 924.962 -1066.95 0 
1840.85 -1054.01 0 2446.97 -1054 0 -1039.45 -1037.09 0 
183.203 -1037.06 0 541.734 -1037.05 0 899.702 -1037.04 0 
1849.99 -1041.04 0 1852.16 -1037.01 0 2446.81 -1036.99 0 
-1041.87 -1020.09 0 184.944 -1032.76 0 190.087 -1020.05 0 
537.803 -1020.05 0 884.942 -1020.04 0 887.964 -1023.52 0 
1859.03 -1020.01 0 2446.66 -1019.99 0 -1044.09 -1003.09 0 
196.972 -1003.05 0 533.875 -1003.04 0 870.182 -1003.04 0 
1865.68 -1003.01 0 2446.5 -1002.99 0 -1046.12 -986.086 0 
203.856 -986.052 0 529.952 -986.044 0 855.421 -986.035 0 
1872.32 -986.007 0 2446.35 -985.992 0 -1048.08 -969.085 0 
210.741 -969.051 0 525.498 -969.043 0 840.661 -969.034 0 
850.965 -980.903 0 1878.97 -969.006 0 2446.21 -968.991 0 
-1050.37 -952.084 0 217.625 -952.05 0 519.905 -952.042 0 
825.901 -952.034 0 1886.64 -952.005 0 2445.84 -951.99 0 
-1052.65 -935.083 0 221.951 -941.369 0 223.432 -935.049 0 
514.122 -935.041 0 517.958 -946.581 0 811.36 -935.033 0 
813.967 -938.289 0 1886.99 -951.321 0 1895.43 -935.004 0 
2443.83 -934.989 0 -1054.94 -918.083 0 225.063 -918.048 0 
508.759 -918.04 0 798.417 -918.032 0 1904.22 -918.003 0 
2442.01 -921.964 0 2441.46 -917.988 0 -1057.22 -901.082 0 
224.567 -901.047 0 503.279 -901.039 0 786.504 -901.032 0 
1913 -901.001 0 2439.09 -900.987 0 -1059.51 -884.081 0 
224.071 -884.046 0 497.801 -884.039 0 775.598 -884.031 0 
776.969 -886.375 0 1921.79 -884 0 2436.71 -883.986 0 
-1061.79 -867.08 0 223.575 -867.045 0 492.325 -867.038 0 
[...]
POINT_DATA 7428
SCALARS Pressure double
LOOKUP_TABLE default
3.0932710339 3.0932710339 3.0932710339 3.0932710339 3.0932710339 3.0932710339 3.0932710339 3.0932710339 3.0932710339 
3.0932710339 3.0932710339 3.0932710339 3.0932710339 3.0932710339 3.0932710339 3.0932710339 3.0932710339 3.0932710339 
3.0932710339 3.0932710339 3.0932710339 3.0932710339 3.0932710339 3.0932710339 3.0932710339 3.0932710339 3.0932710339 
3.0932710339 3.0932710339 3.0932710339 3.0932710339 3.0932710339 3.0932710339 3.0932710339 3.0932710339 3.0932710339 
3.0932710339 3.0932710339 3.0932710339 3.0932710339 3.0932710339 3.0932710339 3.0932710339 3.0932710339 3.0932710339 
3.0932710339 3.0932710339 3.0932710339 3.0932710339 3.0932710339 3.0932710339 3.0932710339 3.0932710339 3.0932710339 
3.0932710339 3.0932710339 3.0932710339 3.0932710339 3.0932710339 3.0932710339 3.0932710339 3.0932710339 3.0932710339 
3.0932710339 3.0932710339 3.0932710339 3.0932710339 3.0932710339 3.0932710339 3.0932710339 3.0932710339 3.0932710339 
3.0932710339 3.0932710339 3.0932710339 3.0932710339 3.0932710339 3.0932710339 3.0932710339 3.0932710339 3.0932710339 
3.0932710339 3.0932710339 3.0932710339 3.0932710339 3.0932710339 3.0932710339 3.0932710339 3.0932710339 3.0932710339 
3.0932710339 3.0932710339 3.0932710339 3.0932710339 3.0932710339 3.0932710339 3.0932710339 3.0932710339 3.0932710339 
3.0932710339 3.0932710339 3.0932710339 3.0932710339 3.0932710339 3.0932710339 3.0932710339 3.0932710339 3.0932710339 
3.0932710339 3.0932710339 3.0932710339 3.0932710339 3.0932710339 3.0932710339 3.0932710339 3.0932710339 3.0932710339 
3.0932710339 3.0932710339 3.0932710339 3.0932710339 3.0932710339 3.0932710339 3.0932710339 3.0932710339 3.0932710339 
3.0932710339 3.0932710339 3.0932710339 3.0932710339 3.0932710339 3.0932710339 3.0932710339 3.0932710339 3.0932710339 
3.0932710339 3.0932710339 3.0932710339 3.0932710339 3.0932710339 3.0932710339 3.0932710339 3.0932710339 3.0932710339 
3.0932710339 3.0932710339 3.0932710339 3.0932710339 3.0932710339 3.0932710339 3.0932710339 3.0932710339 3.0932710339 
3.0932710339 3.0932710339 3.0932710339 3.0932710339 3.0932710339 3.0932710339 3.0932710339 3.0932710339 3.0932710339 
3.0932710339 3.0932710339 3.0932710339 3.0932710339 3.0932710339 3.0932710339 3.0932710339 3.0932710339 3.0932710339 
3.0932710339 3.0932710339 3.0932710339 3.0932710339 3.0932710339 3.0932710339 3.0932710339 3.0932710339 3.0932710339 
3.0932710339 3.0932710339 3.0932710339 3.0932710339 3.0932710339 3.0932710339 3.0932710339 3.0932710339 3.0932710339 
3.0932710339 3.0932710339 3.0932710339 3.0932710339 3.0932710339 3.0932710339 3.0932710339 3.0786768432 3.0786768432 
3.0786768432 3.0932710339 3.0932710339 3.0786768432 3.0786768432 3.0786768432 3.0786768432 3.0932710339 3.0932710339 
3.0786768432 3.0786768432 3.0786768432 3.0786768432 3.0786768432 3.0932710339 3.0932710339 3.0786768432 3.0786768432 
3.0786768432 3.0786768432 3.0932710339 3.0932710339 3.0786768432 3.0786768432 3.0786768432 3.0786768432 3.0786768432 
3.0932710339 3.0932710339 3.0786768432 3.0786768432 3.0786768432 3.0786768432 3.0932710339 3.0932710339 3.0786768432 
3.0786768432 3.0786768432 3.0786768432 3.0932710339 3.0932710339 3.0786768432 3.0786768432 3.0786768432 3.0786768432 
3.0932710339 3.0932710339 3.0786768432 3.0786768432 3.0786768432 3.0932710339 3.0932710339 3.0786768432 3.0786768432 
3.0786768432 3.0786768432 3.0932710339 3.0932710339 3.0932710339 3.0786768432 3.0786768432 3.0932710339 3.0932710339 
3.0786768432 3.0786768432 3.0786768432 3.0932710339 3.0932710339 3.0786768432 3.0786768432 3.0932710339 3.0932710339 
3.0786768432 3.0786768432 3.0786768432 3.0932710339 3.0932710339 3.0786768432 3.0786768432 3.0786768432 3.0932710339 
3.1078652246 3.1078652246 3.1078652246 3.1078652246 3.1078652246 3.0932710339 3.0786768432 3.0786768432 3.0786768432 
3.0932710339 3.1078652246 3.1078652246 3.1078652246 3.1078652246 3.0932710339 3.0786768432 3.0786768432 3.0932710339 
3.1078652246 3.1078652246 3.1078652246 3.1078652246 3.0932710339 3.0786768432 3.0786768432 3.0932710339 3.1078652246 
3.1078652246 3.1078652246 3.0932710339 3.0786768432 3.0786768432 3.0786768432 3.0786768432 3.0932710339 3.1078652246 
3.1078652246 3.1078652246 3.1078652246 3.0932710339 3.0786768432 3.0786768432 3.0932710339 3.0932710339 3.1078652246 
3.1078652246 3.1078652246 3.0932710339 3.0786768432 3.0786768432 3.0932710339 3.1078652246 3.1078652246 3.1078652246 
3.1078652246 3.0932710339 3.0786768432 3.0786768432 3.0786768432 3.0786768432 3.0932710339 3.1078652246 3.1078652246 
3.0932710339 3.0786768432 3.0786768432 3.0932710339 3.1078652246 3.1078652246 3.1078652246 3.1078652246 3.0932710339 
3.0786768432 3.0786768432 3.0932710339 3.0932710339 3.1078652246 3.1078652246 3.1078652246 3.1078652246 3.0932710339 
3.0786768432 3.0786768432 3.0786768432 3.0786768432 3.0932710339 3.1078652246 3.1078652246 3.0932710339 3.0786768432 
3.0786768432 3.0932710339 3.1078652246 3.1078652246 3.1078652246 3.0932710339 3.0786768432 3.0786768432 3.0932710339 
3.1078652246 3.1078652246 3.1078652246 3.1078652246 3.0932710339 3.0786768432 3.0786768432 3.0786768432 3.0932710339 
3.1078652246 3.1078652246 3.0932710339 3.0786768432 3.0786768432 3.0932710339 3.1078652246 3.1078652246 3.1078652246 
3.0932710339 3.0786768432 3.0786768432 3.0932710339 3.1078652246 3.1078652246 3.1078652246 3.0932710339 3.0786768432 
3.0786768432 3.0786768432 3.0932710339 3.1078652246 3.1078652246 3.1078652246 3.0932710339 3.0786768432 3.0786768432 
3.0932710339 3.1078652246 3.1078652246 3.0932710339 3.0786768432 3.0786768432 3.0932710339 3.0932710339 3.1078652246 
3.1078652246 3.1078652246 3.0932710339 3.0786768432 3.0786768432 3.0932710339 3.1078652246 3.1078652246 3.0932710339 
3.0786768432 3.0786768432 3.0786768432 3.0932710339 3.1078652246 3.1078652246 3.1078652246 3.0932710339 3.0786768432 
3.0786768432 3.0932710339 3.1078652246 3.1078652246 3.1078652246 3.0932710339 3.0786768432 3.0786768432 3.0786768432 
3.0932710339 3.1078652246 3.1078652246 3.1078652246 3.0932710339 3.0786768432 3.0786768432 3.0932710339 3.1078652246 
3.1078652246 3.0932710339 3.0786768432 3.0786768432 3.0932710339 3.1078652246 3.1078652246 3.0932710339 3.0786768432 
3.0786768432 3.0932710339 3.1078652246 3.1078652246 3.1078652246 3.0932710339 3.0786768432 3.0786768432 3.0932710339 
3.1078652246 3.1078652246 3.0932710339 3.0786768432 3.0786768432 3.0786768432 3.0932710339 3.0932710339 3.1078652246 
3.1078652246 3.1078652246 3.1078652246 3.0932710339 3.0786768432 3.0786768432 3.0932710339 3.1078652246 3.1078652246 
3.0932710339 3.0932710339 3.0786768432 3.0786768432 3.0932710339 3.1078652246 3.1078652246 3.0932710339 3.0786768432 
3.0786768432 3.0932710339 3.1078652246 3.1078652246 3.1078652246 3.0932710339 3.0786768432 3.0786768432 3.0932710339 
3.1078652246 3.1078652246 3.1078652246 3.0932710339 3.0786768432 3.0786768432 3.0932710339 3.1078652246 3.1078652246 
3.0932710339 3.0786768432 3.0786768432 3.0932710339 3.1078652246 3.1078652246 3.0932710339 3.0786768432 3.0786768432 
3.0932710339 3.0932710339 3.1078652246 3.1078652246 3.1078652246 3.0932710339 3.0786768432 3.0786768432 3.0786768432 
3.0786768432 3.0786768432 3.0932710339 3.1078652246 3.1078652246 3.0932710339 3.0786768432 3.0786768432 3.0786768432 
3.0786768432 3.0786768432 3.0786768432 3.0786768432 3.0786768432 3.0932710339 3.1078652246 3.1224594153 3.1224594153 
3.1224594153 3.1078652246 3.1078652246 3.0932710339 3.0786768432 3.0786768432 3.0786768432 3.0786768432 3.0786768432 
3.0932710339 3.1078652246 3.1078652246 3.1224594153 3.1224594153 3.1224594153 3.1224594153 3.1224594153 3.1224594153 
3.1078652246 3.0932710339 3.0786768432 3.0786768432 3.0786768432 3.0786768432 3.0786768432 3.0786768432 3.0640826525 
3.0640826525 3.0640826525 3.0640826525 3.0640826525 3.0640826525 3.0640826525 3.0786768432 3.0932710339 3.1078652246 
3.1224594153 3.1224594153 3.1224594153 3.1224594153 3.1224594153 3.1224594153 3.1078652246 3.0932710339 3.0786768432 
3.0786768432 3.0786768432 3.0786768432 3.0786768432 3.0786768432 3.0640826525 3.0640826525 3.0640826525 3.0640826525 
3.0786768432 3.0932710339 3.1078652246 3.1224594153 3.1224594153 3.1224594153 3.1078652246 3.0932710339 3.0786768432 
3.0786768432 3.0786768432 3.0786768432 3.0786768432 3.0640826525 3.0640826525 3.0640826525 3.0786768432 3.0932710339 
3.1078652246 3.1224594153 3.1224594153 3.1224594153 3.1078652246 3.0932710339 3.0932710339 3.0786768432 3.0786768432 
3.0786768432 3.0786768432 3.0640826525 3.0640826525 3.0640826525 3.0640826525 3.0786768432 3.0932710339 3.1078652246 
3.1078652246 3.1224594153 3.1224594153 3.1224594153 3.1224594153 3.1078652246 3.0932710339 3.0786768432 3.0786768432 
3.0786768432 3.0640826525 3.0640826525 3.0786768432 3.0932710339 3.1078652246 3.1224594153 3.1224594153 3.1224594153 
3.1078652246 3.1078652246 3.0932710339 3.0786768432 3.0786768432 3.0786768432 3.0786768432 3.0640826525 3.0640826525 
3.0640826525 3.0640826525 3.0786768432 3.0932710339 3.0932710339 3.1078652246 3.1224594153 3.1224594153 3.1224594153 
3.1078652246 3.0932710339 3.0932710339 3.0786768432 3.0786768432 3.0786768432 3.0786768432 3.0786768432 3.0640826525 
3.0640826525 3.0786768432 3.0932710339 3.1078652246 3.1224594153 3.1224594153 3.1224594153 3.1224594153 3.1078652246 
3.0932710339 3.0786768432 3.0786768432 3.0786768432 3.0786768432 3.0640826525 3.0640826525 3.0786768432 3.0932710339 
3.1078652246 3.1078652246 3.1224594153 3.1224594153 3.1224594153 3.1078652246 3.0932710339 3.0786768432 3.0786768432 
3.0786768432 3.0640826525 3.0640826525 3.0640826525 3.0640826525 3.0786768432 3.0932710339 3.1078652246 3.1224594153 
3.1224594153 3.1078652246 3.0932710339 3.0786768432 3.0786768432 3.0786768432 3.0786768432 3.0640826525 3.0640826525 
3.0786768432 3.0932710339 3.1078652246 3.1224594153 3.1224594153 3.1224594153 3.1078652246 3.0932710339 3.0786768432 
3.0786768432 3.0786768432 3.0786768432 3.0640826525 3.0640826525 3.0640826525 3.0640826525 3.0786768432 3.0932710339 
3.1078652246 3.1224594153 3.1224594153 3.1224594153 3.1078652246 3.0932710339 3.0786768432 3.0786768432 3.0786768432 
3.0786768432 3.0640826525 3.0640826525 3.0786768432 3.0932710339 3.1078652246 3.1078652246 3.1224594153 3.1224594153 
3.1224594153 3.1078652246 3.0932710339 3.0786768432 3.0786768432 3.0786768432 3.0640826525 3.0640826525 3.0786768432 
3.0932710339 3.0932710339 3.1078652246 3.1224594153 3.1224594153 3.1078652246 3.1078652246 3.0932710339 3.0786768432 
3.0786768432 3.0786768432 3.0640826525 3.0640826525 3.0786768432 3.0932710339 3.1078652246 3.1224594153 3.1224594153 
3.1224594153 3.1224594153 3.1078652246 3.0932710339 3.0786768432 3.0786768432 3.0786768432 3.0786768432 3.0640826525 
3.0640826525 3.0786768432 3.0786768432 3.0932710339 3.1078652246 3.1078652246 3.1224594153 3.1224594153 3.1078652246 
3.0932710339 3.0786768432 3.0786768432 3.0786768432 3.0640826525 3.0640826525 3.0640826525 3.0640826525 3.0786768432 
3.0932710339 3.1078652246 3.1224594153 3.1224594153 3.1224594153 3.1078652246 3.0932710339 3.0786768432 3.0786768432 
3.0786768432 3.0786768432 3.0786768432 3.0640826525 3.0640826525 3.0786768432 3.0786768432 3.0932710339 3.1078652246 
3.1224594153 3.1224594153 3.1078652246 3.0932710339 3.0786768432 3.0786768432 3.0786768432 3.0640826525 3.0640826525 
3.0786768432 3.0932710339 3.1078652246 3.1224594153 3.1224594153 3.1224594153 3.1078652246 3.0932710339 3.0786768432 
3.0786768432 3.0786768432 3.0640826525 3.0640826525 3.0786768432 3.0932710339 3.1078652246 3.1078652246 3.1224594153 
3.1224594153 3.1224594153 3.1078652246 3.0932710339 3.0786768432 3.0786768432 3.0786768432 3.0640826525 3.0494884618 
3.0494884618 3.0494884618 3.0494884618 3.0494884618 3.0494884618 3.0640826525 3.0786768432 3.0932710339 3.0932710339 
3.1078652246 3.1224594153 3.1224594153 3.1078652246 3.0932710339 3.0786768432 3.0786768432 3.0786768432 3.0640826525 
3.0640826525 3.0494884618 3.0494884618 3.0494884618 3.0640826525 3.0786768432 3.0932710339 3.1078652246 3.1224594153 
3.1224594153 3.1224594153 3.1078652246 3.0932710339 3.0786768432 3.0786768432 3.0786768432 3.0786768432 3.0640826525 
3.0494884618 3.0494884618 3.0494884618 3.0494884618 3.0640826525 3.0786768432 3.0932710339 3.1078652246 3.1078652246 
3.1224594153 3.137053606 3.137053606 3.137053606 3.137053606 3.1224594153 3.1078652246 3.0932710339 3.0786768432 
3.0786768432 3.0786768432 3.0786768432 3.0640826525 3.0494884618 3.0494884618 3.0640826525 3.0786768432 3.0932710339 
3.1078652246 3.1224594153 3.137053606 3.137053606 3.137053606 3.137053606 3.137053606 3.1224594153 3.1078652246 
3.0932710339 3.0786768432 3.0786768432 3.0786768432 3.0640826525 3.0494884618 3.0494884618 3.0494884618 3.0640826525 
3.0786768432 3.0932710339 3.0932710339 3.1078652246 3.1224594153 3.1224594153 3.137053606 3.137053606 3.137053606 
3.1224594153 3.1078652246 3.0932710339 3.0786768432 3.0786768432 3.0786768432 3.0786768432 3.0640826525 3.0494884618 
3.0494884618 3.0494884618 3.0640826525 3.0786768432 3.0932710339 3.1078652246 3.1224594153 3.137053606 3.137053606 
3.1224594153 3.1078652246 3.0932710339 3.0786768432 3.0786768432 3.0786768432 3.0640826525 3.0494884618 3.0494884618 
3.0494884618 3.0640826525 3.0786768432 3.0932710339 3.1078652246 3.1078652246 3.1224594153 3.137053606 3.137053606 
3.137053606 3.1224594153 3.1224594153 3.1078652246 3.0932710339 3.0932710339 3.0786768432 3.0786768432 3.0786768432 
3.0786768432 3.0640826525 3.0494884618 3.0494884618 3.0640826525 3.0786768432 3.0932710339 3.1078652246 3.1224594153 
3.137053606 3.137053606 3.1224594153 3.1078652246 3.0932710339 3.0786768432 3.0786768432 3.0786768432 3.0786768432 
3.0786768432 3.0640826525 3.0494884618 3.0494884618 3.0494884618 3.0640826525 3.0786768432 3.0932710339 3.1078652246 
3.1224594153 3.1224594153 3.137053606 3.137053606 3.1224594153 3.1078652246 3.0932710339 3.0786768432 3.0786768432 
3.0786768432 3.0786768432 3.0640826525 3.0640826525 3.0494884618 3.0494884618 3.0640826525 3.0786768432 3.0932710339 
3.1078652246 3.1078652246 3.1224594153 3.137053606 3.137053606 3.137053606 3.1224594153 3.1078652246 3.0932710339 
3.0786768432 3.0786768432 3.0786768432 3.0786768432 3.0786768432 3.0786768432 3.0640826525 3.0494884618 3.0348942711 
3.0348942711 3.0348942711 3.0348942711 3.0494884618 3.0640826525 3.0786768432 3.0786768432 3.0932710339 3.0932710339 
3.1078652246 3.1224594153 3.137053606 3.137053606 3.1224594153 3.1078652246 3.0932710339 3.0786768432 3.0640826525 
3.0640826525 3.0640826525 3.0640826525 3.0640826525 3.0786768432 3.0786768432 3.0786768432 3.0786768432 3.0786768432 
3.0640826525 3.0494884618 3.0348942711 3.0348942711 3.0348942711 3.0348942711 3.0494884618 3.0494884618 3.0640826525 
3.0786768432 3.0932710339 3.1078652246 3.1224594153 3.137053606 3.137053606 3.1224594153 3.1224594153 3.1078652246 
3.0932710339 3.0786768432 3.0640826525 3.0640826525 3.0640826525 3.0640826525 3.0786768432 3.0786768432 3.0786768432 
3.0786768432 3.0640826525 3.0494884618 3.0348942711 3.0348942711 3.0348942711 3.0348942711 3.0494884618 3.0640826525 
3.0786768432 3.0932710339 3.1078652246 3.1224594153 3.1224594153 3.137053606 3.137053606 3.137053606 3.1224594153 
3.1078652246 3.0932710339 3.0786768432 3.0786768432 3.0640826525 3.0640826525 3.0640826525 3.0786768432 3.0786768432 
3.0786768432 3.0640826525 3.0494884618 3.0348942711 3.0348942711 3.0494884618 3.0640826525 3.0640826525 3.0786768432 
3.0932710339 3.1078652246 3.1224594153 3.137053606 3.137053606 3.1224594153 3.1078652246 3.0932710339 3.0786768432 
3.0640826525 3.0640826525 3.0640826525 3.0640826525 3.0786768432 3.0786768432 3.0786768432 3.0640826525 3.0494884618 
3.0348942711 3.0348942711 3.0494884618 3.0640826525 3.0640826525 3.0786768432 3.0932710339 3.1078652246 3.1224594153 
3.137053606 3.137053606 3.137053606 3.1224594153 3.1078652246 3.0932710339 3.0786768432 3.0640826525 3.0640826525 
3.0786768432 3.0786768432 3.0640826525 3.0494884618 3.0494884618 3.0348942711 3.0348942711 3.0203000804 3.0203000804 
3.0203000804 3.0203000804 3.0348942711 3.0348942711 3.0494884618 3.0640826525 3.0786768432 3.0932710339 3.1078652246 
3.1224594153 2.9473291268 2.9473291268 2.9619233175 2.9619233175 2.9765175082 2.9765175082 2.991111699 2.991111699 
3.0057058897 3.0057058897 3.0203000804 3.0203000804 3.0348942711 3.0348942711 3.0494884618 3.0494884618 3.0640826525 
3.0640826525 3.0786768432 3.0786768432 3.0932710339 3.0932710339 3.1078652246 3.1078652246 3.1224594153 3.1224594153 
2.9473291268 2.9619233175 2.9765175082 2.991111699 3.0057058897 3.0203000804 3.0348942711 3.0494884618 3.0640826525 
3.0786768432 3.0932710339 3.1078652246 3.1224594153 2.9473291268 2.9619233175 2.9765175082 2.991111699 3.0057058897 
3.0203000804 3.0348942711 3.0494884618 3.0640826525 3.0786768432 3.0932710339 3.1078652246 3.1224594153 2.9473291268 
2.9619233175 2.9765175082 2.991111699 3.0057058897 3.0203000804 3.0348942711 3.0494884618 3.0640826525 3.0786768432 
3.0932710339 3.1078652246 3.1224594153 3.137053606 2.9473291268 2.9619233175 2.9765175082 2.991111699 3.0057058897 
3.0203000804 3.0348942711 3.0494884618 3.0640826525 3.0786768432 3.0932710339 3.1078652246 3.1224594153 3.137053606 
2.9473291268 2.9619233175 2.9765175082 2.991111699 3.0057058897 3.0203000804 3.0348942711 3.0494884618 3.0640826525 
3.0786768432 3.0932710339 3.1078652246 3.1224594153 3.137053606 2.9473291268 2.9619233175 2.9765175082 2.991111699 
3.0057058897 3.0203000804 3.0348942711 3.0494884618 3.0640826525 3.0786768432 3.0932710339 3.1078652246 3.1224594153 
3.137053606 2.9473291268 2.9619233175 2.9765175082 2.991111699 3.0057058897 3.0203000804 3.0348942711 3.0494884618 
3.0640826525 3.0786768432 3.0932710339 3.1078652246 3.1224594153 3.137053606 2.9473291268 2.9619233175 2.9765175082 
2.991111699 3.0057058897 3.0203000804 3.0348942711 3.0494884618 3.0640826525 3.0786768432 3.0932710339 3.1078652246 
3.1224594153 3.137053606 2.9473291268 2.9619233175 2.9765175082 2.991111699 3.0057058897 3.0203000804 3.0348942711 
3.0494884618 3.0640826525 3.0786768432 3.0932710339 3.1078652246 3.1224594153 3.137053606 3.137053606 3.137053606 
3.1224594153 3.1078652246 3.0932710339 3.0786768432 3.0640826525 3.0640826525 3.0640826525 3.0786768432 3.0786768432 
3.0786768432 3.0640826525 3.0494884618 3.0348942711 3.0203000804 3.0203000804 3.0203000804 3.0348942711 3.0494884618 
3.0640826525 3.0786768432 3.0932710339 3.1078652246 2.9473291268 2.9473291268 2.9619233175 2.9619233175 2.9765175082 
2.9765175082 2.991111699 2.991111699 3.0057058897 3.0057058897 3.0203000804 3.0203000804 3.0348942711 3.0348942711 
3.0494884618 3.0494884618 3.0640826525 3.0640826525 3.0786768432 3.0786768432 3.0932710339 3.0932710339 3.1078652246 
3.1078652246 2.9473291268 2.9619233175 2.9765175082 2.991111699 3.0057058897 3.0203000804 3.0348942711 3.0494884618 
3.0640826525 3.0786768432 3.0932710339 3.1078652246 2.9473291268 2.9619233175 2.9765175082 2.991111699 3.0057058897 
3.0203000804 3.0348942711 3.0494884618 3.0640826525 3.0786768432 3.0932710339 3.1078652246 2.9473291268 2.9619233175 
2.9765175082 2.991111699 3.0057058897 3.0203000804 3.0348942711 3.0494884618 3.0640826525 3.0786768432 3.0932710339 
3.1078652246 3.1224594153 2.9473291268 2.9619233175 2.9765175082 2.991111699 3.0057058897 3.0203000804 3.0348942711 
3.0494884618 3.0640826525 3.0786768432 3.0932710339 3.1078652246 3.1224594153 2.9473291268 2.9619233175 2.9765175082 
2.991111699 3.0057058897 3.0203000804 3.0348942711 3.0494884618 3.0640826525 3.0786768432 3.0932710339 3.1078652246 
3.1224594153 2.9473291268 2.9619233175 2.9765175082 2.991111699 3.0057058897 3.0203000804 3.0348942711 3.0494884618 
3.0640826525 3.0786768432 3.0932710339 3.1078652246 3.1224594153 2.9473291268 2.9619233175 2.9765175082 2.991111699 
3.0057058897 3.0203000804 3.0348942711 3.0494884618 3.0640826525 3.0786768432 3.0932710339 3.1078652246 3.1224594153 
2.9473291268 2.9619233175 2.9765175082 2.991111699 3.0057058897 3.0203000804 3.0348942711 3.0494884618 3.0640826525 