# vtk DataFile Version 4.2
vtk output
ASCII
DATASET UNSTRUCTURED_GRID
POINTS 1740 double
2144.07 -94.44003 0 2911 0 0 16.54298 -37.82236 0 
5.09149 -21.30132 0 1.27433 -10.75385 0 0 0 0 
2.54575 15.14293 0 6.36291 23.76126 0 14.00014 34.89063 0 
30.50239 50.70793 0 33.39435 -52.93479 0 2050.91 -103.7862 0 
60.1465 -69.72165 0 88.83633 -83.2817 0 118.7656 -94.71113 0 
153.4168 -105.7022 0 199.5806 -117.771 0 261.4466 -130.7139 0 
345.846 -144.1892 0 460.3522 -157.0592 0 608.4185 -167.1903 0 
783.2313 -172.4016 0 941.0559 -172.4533 0 1063.409 -170.1096 0 
1164.153 -166.8746 0 1263.449 -162.682 0 1375.468 -156.8941 0 
1513.293 -148.414 0 1665.281 -137.5317 0 1791.864 -127.3721 0 
2195.451 -89.09491 0 2273.924 -80.67077 0 2383.731 -68.3513 0 
2517.64 -52.47337 0 2649.227 -35.9232 0 2740.773 -23.82991 0 
2804.387 -15.13419 0 2848.802 -8.916218 0 2881.944 -4.196067 0 
56.61447 67.79801 0 84.09687 81.25172 0 112.4783 92.48395 0 
142.1748 102.3504 0 174.8563 111.6168 0 213.124 120.8806 0 
260.3759 130.5151 0 324.6539 141.1779 0 418.1422 152.9178 0 
535.6656 162.9871 0 690.9154 170.4255 0 902.6513 172.7852 0 
1100.32 169.0517 0 1270.99 162.3262 0 1462.794 151.6837 0 
1631.287 140.0952 0 1747.993 131 0 1922.788 115.9027 0 
2069.56 101.951 0 2128.804 96.0021 0 2297.147 78.11721 0 
2414.379 64.80104 0 2554.023 47.99319 0 2673.693 32.73885 0 
2757.97 21.50315 0 2814.297 13.7575 0 2852.02 8.460961 0 
2882.272 4.148909 0 1791.052 127.4402 0 1366.894 157.3738 0 
1444.38 -152.8302 0 1547.039 146.1296 0 1589.287 -143.1614 0 
1878.731 119.8675 0 1997.072 108.9828 0 1185.654 166.0472 0 
1882.536 -119.5292 0 1971.323 -111.4145 0 1684.777 136.0292 0 
2099.317 -98.9855 0 2234.809 84.9091 0 2181.695 90.53914 0 
1728.573 -132.5703 0 1718.815 133.3509 0 1834.825 123.7132 0 
1960.305 112.4444 0 2033.69 105.4648 0 2099.184 98.99892 0 
2214.291 -71.379711482 396.8421 2955.512 15.250193226 396.8421 158.0786 -18.159278531 396.8421 
147.0109 -2.2802569195 396.8421 143.3217 7.8798802906 396.8421 142.09 18.255874234 396.8421 
144.5505 32.895005202 396.8421 148.2398 41.241877756 396.8421 155.621 52.037893312 396.8421 
171.5701 67.416146761 396.8421 174.3652 -32.644210179 396.8421 2124.254 -80.004040341 396.8421 
200.2206 -48.685604922 396.8421 227.9488 -61.603223493 396.8421 256.8748 -72.46080896 396.8421 
290.3647 -82.873275585 396.8421 334.981 -94.270361864 396.8421 394.7733 -106.44344924 396.8421 
476.3434 -119.04783929 396.8421 587.0114 -130.98793698 396.8421 730.1145 -140.25144379 396.8421 
899.0676 -144.82901479 396.8421 1051.602 -144.61297758 396.8421 1169.853 -142.23600096 396.8421 
1267.221 -139.0777138 396.8421 1363.188 -135.04669618 396.8421 1471.452 -129.53734334 396.8421 
1604.657 -121.53221575 396.8421 1751.55 -111.33243369 396.8421 1873.891 -101.86132532 396.8421 
2263.949 -66.454618806 396.8421 2339.792 -58.701534912 396.8421 2445.918 -47.380177453 396.8421 
2575.338 -32.811070302 396.8421 2702.515 -17.643466003 396.8421 2790.992 -6.5676664597 396.8421 
2852.473 1.3943655999 396.8421 2895.4 7.0871579189 396.8421 2927.431 11.408554644 396.8421 
196.807 84.080424762 396.8421 223.3682 97.236726803 396.8421 250.7983 108.24809187 396.8421 
279.4994 117.94261064 396.8421 311.0855 127.06806391 396.8421 348.0705 136.2127686 396.8421 
393.7383 145.74982248 396.8421 455.8617 156.3422123 396.8421 546.2162 168.06524294 396.8421 
659.8003 178.20259321 396.8421 809.846 185.81403753 396.8421 1014.485 188.46845823 396.8421 
1205.528 185.00686441 396.8421 1370.477 178.48307672 396.8421 1555.851 168.01105304 396.8421 
1718.696 156.5132376 396.8421 1831.49 147.4460594 396.8421 2000.426 132.3355687 396.8421 
2142.278 118.32193656 396.8421 2199.537 112.33528653 396.8421 2362.236 94.304521512 396.8421 
2475.539 80.85489993 396.8421 2610.501 63.856932414 396.8421 2726.16 48.415400384 396.8421 
2807.613 37.035958887 396.8421 2862.05 29.189314395 396.8421 2898.509 23.823095411 396.8421 
2927.749 19.454051302 396.8421 1873.106 143.88918377 396.8421 1463.165 173.62423719 396.8421 
1538.054 -125.69328687 396.8421 1637.272 162.50955697 396.8421 1678.104 -116.60069715 396.8421 
1957.846 136.30995035 396.8421 2072.22 125.39011967 396.8421 1288 182.10827043 396.8421 
1961.524 -94.575821977 396.8421 2047.334 -87.057034322 396.8421 1770.393 152.46376885 396.8421 
2171.038 -75.572036104 396.8421 2301.989 101.15691752 396.8421 2250.655 106.83254963 396.8421 
1812.721 -106.70196681 396.8421 1803.29 149.79264937 396.8421 1915.411 140.16094169 396.8421 
2036.686 128.86574402 396.8421 2107.61 121.85510988 396.8421 2170.909 115.35191605 396.8421 
2284.511 -50.83745324 793.6842 3000.027 29.73810398 793.6842 299.6143 -2.1267996231 793.6842 
288.9304 13.125418398 793.6842 285.3691 22.903192049 793.6842 284.1801 32.902784579 793.6842 
286.5551 47.03416882 793.6842 290.1167 55.104140527 793.6842 297.2417 65.556143761 793.6842 
312.6379 80.473212308 793.6842 315.336 -16.006407041 793.6842 2197.597 -58.922028547 793.6842 
340.2947 -31.336666268 793.6842 367.0612 -43.647227116 793.6842 394.9839 -53.968142669 793.6842 
427.3123 -63.840471357 793.6842 470.3812 -74.613473104 793.6842 528.0998 -86.073877388 793.6842 
606.8411 -97.873058657 793.6842 713.6708 -108.95022154 793.6842 851.8104 -117.39534525 793.6842 
1014.904 -121.3451623 793.6842 1162.147 -120.82049527 793.6842 1276.298 -118.34942993 793.6842 
1370.288 -115.19951905 793.6842 1462.927 -111.24707636 793.6842 1567.436 -105.90510963 793.6842 
1696.021 -98.213081701 793.6842 1837.82 -88.487543631 793.6842 1955.917 -79.50906817 793.6842 
2332.447 -46.228431811 793.6842 2405.659 -38.983012717 793.6842 2508.105 -28.422459471 793.6842 
2633.037 -14.860293228 793.6842 2755.801 -0.76682364007 793.6842 2841.209 9.5119303724 793.6842 
2900.561 16.895874523 793.6842 2941.997 22.173279637 793.6842 2972.917 26.178335319 793.6842 
336.9995 96.678204938 793.6842 362.6396 109.50385128 793.6842 389.1182 120.26190553 793.6842 
416.8239 129.75270326 793.6842 447.3145 138.70454724 793.6842 483.0167 147.69495359 793.6842 
527.1009 157.09549488 793.6842 587.0697 167.57214355 793.6842 674.2905 179.22802079 793.6842 
783.9349 189.39531428 793.6842 928.7766 197.1696788 793.6842 1126.317 200.17425175 793.6842 
1310.735 197.10216252 793.6842 1469.963 190.92806834 793.6842 1648.908 180.8393732 793.6842 
1806.105 169.65666367 793.6842 1914.987 160.79124391 793.6842 2078.064 145.95373429 793.6842 
2214.996 132.14025745 793.6842 2270.269 126.22673178 793.6842 2427.326 108.37988007 793.6842 
2536.699 95.038215936 793.6842 2666.98 78.148914469 793.6842 2778.628 62.784862957 793.6842 
2857.255 51.452317755 793.6842 2909.806 43.633870785 793.6842 2945.001 38.285282454 793.6842 
2973.224 33.929729126 793.6842 1955.16 157.30491134 793.6842 1559.437 186.26332168 793.6842 
1631.729 -102.20324102 793.6842 1727.505 175.49857996 793.6842 1766.921 -93.502296927 793.6842 
2036.96 149.86270726 793.6842 2147.368 139.11290835 793.6842 1390.347 194.37832601 793.6842 
2040.511 -72.628841422 793.6842 2123.346 -65.548259433 793.6842 1856.009 165.70150127 793.6842 
2242.759 -54.765100014 793.6842 2369.167 115.16822739 793.6842 2319.614 120.78552191 793.6842 
1896.869 -84.092631891 793.6842 1887.765 163.08881272 793.6842 1995.998 153.64626256 793.6842 
2113.066 142.53766716 793.6842 2181.531 135.62699101 793.6842 2242.634 129.20734723 793.6842 
2354.732 -33.091804509 1190.526 3044.539 42.855232314 1190.526 441.15 10.570732901 1190.526 
430.8497 25.210428443 1190.526 427.4164 34.610509748 1190.526 426.2701 44.235093668 1190.526 
428.5601 57.85506269 1190.526 431.9934 65.643001978 1190.526 438.8627 75.741018169 1190.526 
453.7057 90.175897465 1190.526 456.3069 -2.72454225 1190.526 2270.94 -40.775935055 1190.526 
480.3688 -17.376201873 1190.526 506.1737 -29.113472333 1190.526 533.0934 -38.93164034 1190.526 
564.26 -48.301388873 1190.526 605.7815 -58.497415204 1190.526 661.4265 -69.302938131 1190.526 
737.3385 -80.366364512 1190.526 840.33 -90.656935133 1190.526 973.5064 -98.352885362 1190.526 
1130.74 -101.71488892 1190.526 1272.693 -100.8795238 1190.526 1382.742 -98.288936629 1190.526 
1473.356 -95.111335618 1190.526 1562.666 -91.188735897 1190.526 1663.42 -85.943803917 1190.526 
1787.385 -78.457301499 1190.526 1924.09 -69.061027644 1190.526 2037.944 -60.434457846 1190.526 
2400.946 -28.718452082 1190.526 2471.527 -21.853313977 1190.526 2570.292 -11.866097821 1190.526 
2690.735 0.93139271293 1190.526 2809.091 14.202320698 1190.526 2891.43 23.866558183 1190.526 
2948.647 30.802652164 1190.526 2988.597 35.757043385 1190.526 3018.403 39.515587165 1190.526 
477.1918 105.88965544 1190.526 501.9109 118.35247513 1190.526 527.4382 128.82551848 1190.526 
554.1485 138.08094835 1190.526 583.5435 146.82614798 1190.526 617.963 155.62617107 1190.526 
660.4633 164.84900494 1190.526 718.2775 175.15993324 1190.526 802.3645 186.68820067 1190.526 
908.0698 196.8290584 1190.526 1047.707 204.72406368 1190.526 1238.151 208.07735959 1190.526 
1415.942 205.448159 1190.526 1569.449 199.70947233 1190.526 1741.965 190.14170694 1190.526 
1893.514 179.42846742 1190.526 1998.484 170.88904678 1190.526 2155.702 156.53555719 1190.526 
2287.714 143.12118727 1190.526 2341.001 137.36645126 1190.526 2492.415 119.9628351 1190.526 
2597.858 106.92297065 1190.526 2723.46 90.386393412 1190.526 2831.095 75.319841597 1190.526 
2906.899 64.194790094 1190.526 2957.56 56.514470165 1190.526 2991.49 51.258199559 1190.526 
3018.699 46.97662568 1190.526 2037.214 167.52262508 1190.526 1655.708 195.30241471 1190.526 
1725.403 -82.333178605 1190.526 1817.738 185.03500738 1190.526 1855.738 -73.898123606 1190.526 
2116.075 160.32329551 1190.526 2222.516 149.89766704 1190.526 1492.694 202.93753967 1190.526 
2119.498 -53.847875259 1190.526 2199.357 -47.087714923 1190.526 1941.625 175.62274603 1190.526 
2314.479 -36.822737929 1190.526 2436.346 126.58844367 1190.526 2388.573 132.06580724 1190.526 
1981.017 -64.833381601 1190.526 1972.24 173.10514791 1190.526 2076.584 163.98540295 1190.526 
[...]
POINT_DATA 1740
FIELD FieldData 1
Pressure 1 1740 double
3.1033340879 3.0186690441 3.0092569584 2.9863614644 2.9766794922 2.9536487471 2.9689443965 2.9867868544 3.018466922 
3.0316913951 3.0108821638 3.1069649778 3.0352649599 3.0494926801 3.0660452892 3.0643686443 3.0814438525 3.0864578394 
3.1065478343 3.1111813497 3.1287671653 3.1365660311 3.1383767348 3.142030334 3.1377460581 3.1336837972 3.1304230722 
3.1270537501 3.1215581971 3.1168549641 3.1006648896 3.0976131539 3.0918056127 3.0843090246 3.0733288581 3.0637394475 
3.0531915427 3.045351906 3.0343609324 3.0677996863 3.08062469 3.093159353 3.106205399 3.1122245096 3.1197024806 
3.1272774713 3.1355669297 3.1518072295 3.1654960669 3.182802875 3.195090439 3.2018920319 3.2088570445 3.215142848 
3.2191704049 3.2218321972 3.2233668011 3.2238983134 3.1426246275 3.0868229163 3.0822834627 3.0730715703 3.0635597537 
3.0538512726 3.0436536526 3.0369424046 3.0344519345 3.2222343421 3.2124368663 3.1295339541 3.2159423965 3.1245177583 
3.2230081267 3.2238529042 3.2081013716 3.1130927696 3.1098133532 3.2193553067 3.1053137006 3.0921158631 3.0920750732 
3.1193668022 3.2209992631 3.2234554661 3.2245918382 3.2247514854 3.2343296252 3.1001859346 3.0234573993 3.0264038724 
2.9995521275 3.007369876 2.9846964928 2.9948655341 3.0076692188 3.0347410834 3.0529743336 3.0354806743 3.104283242 
3.0554055673 3.0680636844 3.0817115784 3.0855171121 3.1004727713 3.1091724538 3.122170878 3.1269192348 3.1359650764 
3.1397780761 3.1410301791 3.1408483117 3.1371518724 3.1326417831 3.1281494741 3.1236480298 3.1188283388 3.1143148337 
3.0976387 3.0940608581 3.0882924847 3.0810879331 3.0700376775 3.0605783239 3.0505009225 3.0434955945 3.0252459544 
3.0857955551 3.1064507042 3.1183042777 3.1268600067 3.1360090424 3.1407378242 3.1464424429 3.1570461831 3.169483818 
3.1794291795 3.1894846122 3.1982224784 3.2047523479 3.2117383676 3.21583751 3.2193067602 3.2210851117 3.2242067338 
3.2171458563 3.0815926177 3.0922881644 3.0854539037 3.0766603801 3.066448343 3.0566559855 3.0460089591 3.0397500383 
3.0413517589 3.2219878854 3.2142605556 3.1268633248 3.2176553115 3.1211309314 3.2235023274 3.2249991221 3.2095483072 
3.1103072111 3.1069049669 3.219928702 3.1025813514 3.0922366479 3.0876744225 3.1168828778 3.2206228841 3.2230587418 
3.2252928754 3.2257603841 3.1462019188 3.0979210726 3.0228294538 3.0273824144 3.0006708388 3.0024494979 2.9834008259 
2.9976651684 3.0107286386 3.0388635736 3.0600156462 3.0435065213 3.1018248197 3.0582177505 3.0771581805 3.0952118672 
3.1012269466 3.1138427328 3.1213115701 3.1339502309 3.1391707139 3.1453835262 3.1468177598 3.1452968187 3.1424538451 
3.1369590514 3.1314515621 3.1268896742 3.121599535 3.1169362116 3.1120995431 3.0956226715 3.0920900192 3.0862432922 
3.0790899815 3.0679837509 3.0583006292 3.0487631161 3.0418379873 3.0268955105 3.0923804491 3.1143943229 3.1329837536 
3.1422828836 3.1546767193 3.1626931647 3.1724919687 3.1768594121 3.1858450655 3.1960382411 3.202171882 3.2088627635 
3.2115468318 3.2185592482 3.222162036 3.2229327351 3.2244680741 3.2270784162 3.0859566107 3.0807663903 3.0853406654 
3.081090641 3.0738848079 3.064458355 3.0556237308 3.0457396698 3.0388609305 3.0413928485 3.2253244681 3.2201508148 
3.1247167832 3.2224442818 3.1191448891 3.2263677771 3.2274853353 3.2154912363 3.1083007068 3.1045976073 3.2232159235 
3.100404433 3.0866492299 3.0853270983 3.1148376362 3.2237013069 3.2264401904 3.2276632951 3.2315784274 3.0780040307 
3.0962057501 3.0236222167 3.0285659267 3.0012331105 3.0034378018 2.981497823 2.9927643886 3.0066923953 3.0393510819 
3.060536901 3.0435213152 3.1000854241 3.0637922269 3.0809330506 3.0998371299 3.1078716614 3.120393895 3.1279137625 
3.1396952093 3.1454187545 3.1511322355 3.1504054161 3.1472038366 3.1430347585 3.1368345528 3.1314346978 3.1261565766 
3.1205845162 3.1151046052 3.1104082599 3.0941094894 3.090536035 3.0851019425 3.0777460059 3.066918132 3.0570935786 
3.048182823 3.0412897383 3.0281758013 3.0959382083 3.1197068824 3.1354376976 3.1482281712 3.1552192206 3.1668595337 
3.1798563179 3.1897374752 3.1978695523 3.2084958691 3.2148245354 3.2201576397 3.2216666131 3.2275902158 3.2302346592 
3.2302454436 3.2313613864 3.2326949208 3.0871630382 3.0888809343 3.0865145864 3.0823472159 3.0750382302 3.0653303537 
3.0560385484 3.0470004296 3.0395624696 3.0426464221 3.2316504776 3.2290140688 3.1238027086 3.2304320783 3.117694384 
3.2322976109 3.2274909836 3.2251236621 3.1068291237 3.1029706651 3.2304275057 3.0984750954 3.0878569753 3.0879211567 
3.1127093916 3.2305838546 3.2321329194 3.2335232968 3.0833452889 3.0897919129 3.0949647937 3.025192334 3.0307475619 
3.0021484962 3.0082628688 2.9857341047 2.9946476406 3.0075874333 3.0414874446 3.0620024213 3.0451814404 3.0986677595 
3.0666622361 3.0837760705 3.100603768 3.1099303371 3.1225283689 3.1325980357 3.1422999576 3.1486808733 3.1540150987 
3.1519764312 3.1475392511 3.1423849311 3.1355712979 3.1300775973 3.1245517194 3.119117243 3.11362276 3.1086504436 
3.0927503809 3.0890815259 3.0840257936 3.076582089 3.0662885532 3.0565543925 3.0480957163 3.0409164157 3.0289989147 
3.0973645551 3.1214316642 3.1368640294 3.1502622686 3.159872619 3.1710735544 3.1829522873 3.1887125452 3.2002399961 
3.2136895211 3.2237141148 3.2280532358 3.2308478264 3.2365433912 3.2383982608 3.2378630357 3.2388637369 3.2394399094 
3.0942422186 3.092331083 3.0898132522 3.0857780428 3.0788998695 3.0688469613 3.059316744 3.0502440841 3.0425940317 
3.0449789712 3.2390551511 3.2376145608 3.1224019937 3.2384097623 3.116269303 3.2393295502 3.1776111878 3.2341929784 
3.1052479069 3.10161911 3.2381760852 3.0968218507 3.0911315196 3.0914941468 3.110974872 3.238295293 3.2392147431 
3.2398075554 3.0914863621 3.0960972058 3.0935288532 3.0255968279 3.0319359815 3.0032306309 3.0098306248 2.9866482045 
2.996011106 3.0089670825 3.0421430348 3.0640259208 3.0465014661 3.0973147063 3.0681937878 3.0861353126 3.102022646 
3.1118908149 3.1243940743 3.1353480327 3.1452274001 3.1522855467 3.1563373219 3.1531973798 3.1474868258 3.1414065024 
3.13427527 3.1286776857 3.1230631464 3.1176799873 3.1121381751 3.107115997 3.0913453651 3.0877231868 3.0829078694 
3.075538291 3.0656038789 3.055952989 3.0477566099 3.040363783 3.029600166 3.0988100079 3.1232266129 3.1385627637 
3.1518796314 3.1612677657 3.17311705 3.1862041373 3.1936877388 3.2053486055 3.2183375728 3.2298738302 3.2359620221 
3.2389087663 3.2453418016 3.2467750993 3.2461395425 3.2463743668 3.2463400037 3.0900309887 3.0936192617 3.0910991001 
3.0866021006 3.0795202496 3.0697940701 3.0606580433 3.0514349344 3.0436600335 3.0460122034 3.2464711461 3.2461138885 
3.120969665 3.2468077155 3.1148308324 3.2465713503 3.0795865755 3.2424524717 3.1037734364 3.10027193 3.2459108875 
3.0953050947 3.0929218804 3.0929775848 3.1094550489 3.2460153405 3.2464878893 3.2210745298 3.0857181705 3.0920209023 
3.0925648709 3.0242150317 3.03244792 3.0034349107 3.0093755291 2.9864127148 2.9958306369 3.0090941395 3.0421234184 
3.0645105288 3.0473303861 3.0963103358 3.0690627327 3.0874662279 3.103216992 3.1134880596 3.1259828247 3.1376503676 
3.1470781045 3.1543859202 3.158196978 3.1540780687 3.1473768182 3.1406312558 3.1334401393 3.1277811808 3.1220859476 
3.1166238691 3.1111150932 3.1061162136 3.0904013058 3.086802402 3.0821165827 3.0747850713 3.0650567282 3.0553376979 
3.0473176314 3.039796609 3.0301021726 3.0992806647 3.1239093604 3.1395929393 3.1528354296 3.1626120769 3.1744268018 
3.1873043215 3.1955781924 3.2076382868 3.2216915517 3.2338384567 3.2414162133 3.2458537867 3.25274338 3.2541972007 
3.2544506384 3.2542284783 3.2565346322 3.0853923184 3.0870820055 3.0862630073 3.0816757875 3.0748232888 3.0659999341 
3.0573409632 3.0486790133 3.040830533 3.0439086344 3.2542135492 3.2544290566 3.1200233818 3.2547595798 3.113794833 
3.2544725412 3.0858001818 3.2497018663 3.1027773688 3.0993005869 3.254114323 3.094373509 3.0876216724 3.086748281 
3.1083571001 3.2539878633 3.2545350335 3.1110430083 3.0849886858 3.0852233729 3.0920261633 3.0226720672 3.0327588059 
3.0036133763 3.0094392622 2.9868018353 2.9958766735 3.0092016087 3.0422806695 3.0647339891 3.0477957649 3.0956724638 
3.0695771938 3.088035327 3.1036656544 3.1143467615 3.126937153 3.1392143543 3.1483525805 3.1557835215 3.1596048486 
3.1547420167 3.1473280876 3.1401688718 3.1331117672 3.1272989023 3.1215962345 3.1158027958 3.110582294 3.1055813581 
3.0898684778 3.0863525475 3.0817542964 3.0744572723 3.0648637781 3.0550084103 3.0470747536 3.0395358581 3.0305543799 
3.099561202 3.1243198227 3.1400625189 3.1533499 3.1632577775 3.1751156902 3.187909881 3.1969763237 3.2093431059 
3.2235460425 3.2362475344 3.2453917135 3.2509123861 3.2587323198 3.2620662959 3.2613653636 3.2618895675 3.267677268 
3.0809435463 3.0805510138 3.0800682791 3.076025753 3.0698422437 3.0612140459 3.0526620768 3.0446794849 3.037016462 
3.0402670497 3.2624252918 3.2605289214 3.1192562475 3.2619246068 3.113191234 3.2626803082 3.075485805 3.2550638485 
3.1022501032 3.0988873199 3.261603443 3.0936427641 3.0811372764 3.0801970452 3.1078303973 3.2615617374 3.2626920658 
3.0813460227 3.0799848733 3.0807243901 3.0918660806 3.0223126935 3.0330990292 3.0038252634 3.0097099791 2.9873093901 
2.9961265512 3.0095919111 3.0427165856 3.0651819905 3.0479742725 3.0954444475 3.0698368629 3.0885009703 3.1040745108 
3.1151615122 3.127539629 3.1402757944 3.1491606047 3.1566718942 3.1607519521 3.1554068724 3.1475566865 3.1401698791 
3.1332479805 3.1272072208 3.1215652198 3.115829303 3.1105593777 3.1054817182 3.0897589207 3.0862825049 3.0816935417 
3.0744370514 3.0649151688 3.055088084 3.047175224 3.0396300777 3.0307874093 3.1000862951 3.12482874 3.1407830624 
3.1540499337 3.1639809131 3.1758590016 3.1884446004 3.197997667 3.2107190173 3.2249394809 3.2378996897 3.2478387016 
3.2542872464 3.2626029896 3.2663335991 3.2675134775 3.2683448236 3.2776810808 3.079450002 3.0792850091 3.0781998881 
3.0743648907 3.0683361789 3.0592203525 3.0505529125 3.0428116138 3.0352629549 3.0381871084 3.2684018796 3.2651410946 
3.1193172284 3.2676598488 3.113183715 3.2690586872 3.0776324019 3.258766957 3.10216218 3.0988382788 3.2677123726 
3.0934400168 3.0795737723 3.0788207674 3.1077892614 3.2677884148 3.2687440399 3.0780382931 3.0771877419 3.078990307 
3.0920700912 3.0229203321 3.0334066963 3.0040339917 3.0102136214 2.9879217421 2.9964925899 3.010054594 3.043305303 
3.0657485951 3.0480477134 3.095833561 3.0697531036 3.088300555 3.1038483976 3.1152509595 3.1277492347 3.1408061568 
3.149629435 3.1571800067 3.161803169 3.1562614108 3.1482114965 3.1406613717 3.1338722741 3.1276896017 3.1220418978 
3.1161522881 3.1109670189 3.1058216969 3.0900676623 3.086572473 3.0819284057 3.0747052641 3.0651657341 3.0553640522 
3.0474342635 3.0399134678 3.0310410425 3.1008284834 3.1255614363 3.1416389375 3.1549272274 3.1649281056 3.1767641145 
3.189220844 3.1990503742 3.2120990262 3.2261914522 3.2393249131 3.2495971264 3.2563829112 3.265265933 3.2696812201 
3.2714109703 3.2724143114 3.2852412743 3.0792512509 3.0787175168 3.0777601048 3.0736347539 3.0676753362 3.0584494004 
3.0499726391 3.0422200097 3.0351036104 3.037664733 3.2728138045 3.2679937007 3.1196643125 3.2710526491 3.1135481436 
3.273941443 3.0783408627 3.2609834157 3.1024867445 3.0990182661 3.2719629549 3.0937018693 3.0789549617 3.0786353645 
3.1082046008 3.272031524 3.2734062774 3.0839998891 3.0754907348 3.0782483143 3.0928358809 3.0234863134 3.0337719799 
3.004177149 3.0107463326 2.9886090306 2.9969774722 3.0106124676 3.0440578538 3.0664427986 3.0475114922 3.0967788507 
3.0691572157 3.0879076011 3.1035868218 3.1152738903 3.127690562 3.1409094839 3.1498420982 3.1579105364 3.1628658618 
3.1573728196 3.1493420939 3.141681546 3.1349930994 3.1286657774 3.1230328456 3.1169859202 3.1118094985 3.1066149976 
3.0907998407 3.0872586206 3.0825067881 3.0752740095 3.0656509267 3.0558259623 3.0478244879 3.0403410246 3.0312665358 
3.1018634875 3.1264684952 3.1427932656 3.1561161584 3.1661269572 3.1779471226 3.1902892565 3.2003527918 3.2136608956 
3.2275716254 3.2407809124 3.251203356 3.2579743197 3.2670969553 3.2718238966 3.2739488349 3.2752253156 3.2913246873 
3.0750762706 3.0755561556 3.0756576339 3.0715344825 3.0657931471 3.0568066063 3.0486530893 3.0410764801 3.0345665657 
3.0369663487 3.2758091011 3.2701026652 3.1205115087 3.273366597 3.1144022348 3.2777608332 3.0765602425 3.2625097088 
3.1032000429 3.0998394752 3.2745666146 3.0945841074 3.0767783942 3.076412985 3.1090778568 3.2748008016 3.2765646069 
3.0854308987 3.072813816 3.0748187631 3.0938161413 3.023663848 3.0339699477 3.0041581574 3.0110878721 2.9892903847 
2.9975609418 3.0112475994 3.0451394513 3.0674443036 3.0467198885 3.0977940795 3.068287264 3.0870490314 3.1030025346 
3.114956158 3.1272674497 3.1404750044 3.1498990328 3.1580820951 3.1638847387 3.1587344102 3.1509338321 3.1431827447 
3.1365435823 3.1300410686 3.1243884537 3.1182635666 3.1129536899 3.1077429065 3.091755829 3.0881617419 3.083304249 
3.0760343841 3.0662820357 3.0564208942 3.0483176194 3.0408659209 3.0313835581 3.1032411832 3.1276785632 3.1442567971 
3.1576192074 3.167643305 3.1794480873 3.1916919682 3.2019510849 3.2155047366 3.2291975581 3.2424089756 3.2528776609 
3.2594826761 3.2684437335 3.2736276843 3.2758355263 3.2771617496 3.2955941151 3.0720945851 3.0723385077 3.072958671 
3.069158759 3.0637107423 3.0548363596 3.0468174397 3.0395162199 3.0333625666 3.0356726913 3.2777525095 3.2717098801 
3.1217820013 3.2751075091 3.115528833 3.2795168484 3.0734875189 3.2638736653 3.104174911 3.1007785658 3.2764355981 
3.0956904413 3.0740567909 3.0736230081 3.1102471676 3.2766934758 3.2789066058 3.0857088632 3.0701223965 3.0718037147 
3.0949424333 3.0238026067 3.0341382412 3.0039265022 3.0106238892 2.9898015959 2.9982613063 3.0119481105 3.0462417266 
3.0686148164 3.0457607459 3.0989408131 3.0672634076 3.0859285113 3.1021702669 3.114218449 3.1265678233 3.1397423182 
3.1497618455 3.1583621444 3.1648574928 3.1602620609 3.15287011 3.1449740735 3.1383060999 3.1315974241 3.1258685307 
3.1197063488 3.1142939755 3.1090235034 3.0928311399 3.0891613061 3.0841604896 3.0768313104 3.0669347838 3.0570346099 
3.0488142928 3.041395761 3.0313492456 3.1048768325 3.1292846031 3.1459463274 3.1594159721 3.169437387 3.1812531801 
3.1934737738 3.2038639981 3.2177404806 3.2311697435 3.2442903633 3.2547940086 3.2611547435 3.269867509 3.2753081952 
3.2774702762 3.2787065707 3.2991698843 3.0728339696 3.0724180116 3.0716746247 3.0680714383 3.0624752899 3.0536169515 
3.0456373754 3.0383853004 3.0325247118 3.0346364701 3.2794807803 3.2732126345 3.1232737886 3.2766992498 3.1169268475 
3.2803780248 3.0730914311 3.2653341022 3.1054360705 3.1018979165 3.2780212805 3.096836599 3.0729654648 3.0730548969 
3.1115912546 3.2782607068 3.2800239861 3.0785375372 3.0716612727 3.0724761263 3.0960227154 3.0239605464 3.0343706763 
3.0038670827 3.0102589238 2.9904641957 2.9993328295 3.0128415253 3.0475595978 3.0699024283 3.0447654509 3.1000372603 
3.0661120281 3.0848927933 3.1006450825 3.1126093357 3.1253017649 3.1384792648 3.149604868 3.1583006607 3.1653067232 
3.1615318111 3.1547641702 3.1468192185 3.1400539536 3.1331218844 3.127263658 3.1211250867 3.1156628689 3.1102876873 
3.0938555222 3.0901364444 3.0850000879 3.0775932762 3.0675444428 3.0576134692 3.0492665594 3.0418806758 3.0311608319 
3.1068111917 3.1313136164 3.1478864664 3.1615301644 3.1715159005 3.1833955584 3.1956627302 3.2061193159 3.2203797742 
3.2334700942 3.2464875118 3.2569008855 3.2630730855 3.2715210745 3.277107756 3.2792854907 3.2803867862 3.2687794845 
3.0727780343 3.0725002638 3.0709857865 3.0671716969 3.0612892376 3.0528423882 3.0450502582 3.037740621 3.0321521134 
3.0341002118 3.2812097343 3.2748899328 3.1247735813 3.2784835526 3.1183741636 3.2836119964 3.0728786487 3.2670524412 
3.1067016632 3.1029940553 3.2797496028 3.0979779389 3.0725060133 3.0726148238 3.1129162523 3.2799461462 3.282034135 
3.0709069119 3.0719032567 3.0725586419 3.0970632898 3.0241128694 3.0341448748 3.0038674928 3.0104347155 2.9913773082 
3.0005644659 3.0138323963 3.0492053061 3.0715020677 3.0435274968 3.1011296015 3.0647340549 3.0837178732 3.0987566119 
3.1105519176 3.123570515 3.1366705182 3.1490713198 3.1586776326 3.1658240564 3.1632264955 3.157037248 3.1489497788 
3.1418535845 3.1346241553 3.1284903286 3.1224868545 3.1167016246 3.1114426525 3.0948383923 3.0911021456 3.0858412436 
3.078357136 3.0681491636 3.0581304223 3.0496447798 3.0422604039 3.0307678388 3.10891315 3.1336199672 3.149974769 
3.1637560139 3.1737228953 3.1855395052 3.1980252172 3.2085229976 3.223051082 3.2359058209 3.2486679058 3.2592626096 
3.2652841217 3.2734716222 3.2794686596 3.2819797305 3.2829695377 3.0840217788 3.070167646 3.0704369919 3.0696144273 
3.0661379233 3.0604237524 3.0525438742 3.0449550416 3.0377576053 3.0322813313 3.0343418284 3.2841015801 3.2768645864 
3.1261572532 3.2806548059 3.1197291493 3.2855225466 3.0701988682 3.2690955586 3.1078350954 3.1040808341 3.2820711566 
3.0990883576 3.0709513693 3.0708456988 3.1140647572 3.282432231 3.2837849573 3.0683208263 3.0697046194 3.0699775948 
3.0980629842 3.0243461804 3.032554217 3.0028477105 3.0104688666 2.9910713172 3.0009711775 3.0144317696 3.0496753477 
3.0726357624 3.0416903824 3.1021941128 3.0624797926 3.0816970697 3.096709643 3.1085535628 3.1217539706 3.1343359915 
3.1489558028 3.1579762507 3.1665867212 3.1653105036 3.1597331762 3.1515226707 3.1438036968 3.1361816911 3.129816688 
3.1237848816 3.1183461871 3.1127341221 3.0958237233 3.0919746803 3.0866601173 3.0789902748 3.0685972848 3.0584085712 
3.0498132845 3.0423364781 3.029765461 3.110242904 3.1354430587 3.1515559356 3.1652315402 3.1753587768 3.1874621214 
3.2001742361 3.2107396685 3.2253161093 3.2383449291 3.2515439196 3.2615278075 3.2679607078 3.276459932 3.2835157722 
3.2854827667 3.2856536667 3.0684774612 3.0710893246 3.0711078087 3.0704368908 3.0668155067 3.0615676413 3.0537867461 
3.0462410386 3.0389086682 3.0333871858 3.0355200489 3.2857212621 3.2801365704 3.1275840019 3.2845794959 3.1209248712 
3.2972494404 3.0695711104 3.2717003739 3.1092178546 3.10523541 3.2856212149 3.1001311494 3.0718013273 3.0716169404 
3.1154723213 3.2857679085 3.2965195286 3.0666922932 3.0706331828 3.0707722351 3.0987332421 3.0246116964 3.0310903309 
3.0005733731 3.0060719821 2.9901080317 2.9999468373 3.0140184732 3.0487010611 3.0724904709 3.0391222969 3.1029623535 
3.06078084 3.0797852594 3.0959493005 3.107263716 3.1207987185 3.1324094849 3.1496681889 3.159125716 3.1685234012 
3.1701169916 3.1638506138 3.1549439183 3.1457684688 3.137729371 3.1309669411 3.1244773588 3.1186773581 3.1137934835 
3.0966540112 3.0925971792 3.0872793549 3.0796368493 3.0688875427 3.0583295 3.0495997393 3.0418933383 3.0281999658 
3.110913782 3.1363101144 3.1528610199 3.1672174123 3.1772733932 3.1895173437 3.2021961794 3.2134006656 3.2290295614 
3.2424302006 3.2557086127 3.2685963992 3.272862208 3.2806520063 3.286446916 3.2867009716 3.284824213 3.0678972781 
3.0743335679 3.0736498095 3.0732828905 3.0703423629 3.0647023027 3.0564016176 3.0489778694 3.0417043286 3.0356923931 
3.0384547784 3.2878315073 3.2841643753 3.1281612584 3.2863622862 3.1215749466 3.0560098364 3.0724243218 3.2760628203 
3.1095327221 3.1059149218 3.2859317809 3.1008601078 3.0744105408 3.074460932 3.1165319667 3.2852915042 3.1971923384 
3.0672167057 3.0731728324 3.0741615696 3.0988048774 3.0277467693 3.0326785055 3.0036976031 3.0074704789 2.9906297282 
3.0020523552 3.0166028333 3.0516144675 3.0733824288 3.0423161957 3.1018770737 3.0622969971 3.0821981817 3.0970261138 
3.109589573 3.1230086896 3.1350166179 3.1539414001 3.1745633741 3.1759195422 3.1749973979 3.1669547787 3.155537757 
3.1451895987 3.1371491201 3.1297491989 3.1234945678 3.116932167 3.1117238036 3.0956236627 3.0931807238 3.087711909 
3.0783036352 3.0688309475 3.0576264399 3.0486451124 3.0399530333 3.0267491656 3.109157441 3.136328555 3.1585465021 
3.1728500183 3.1818240342 3.1998513857 3.2085958604 3.2194123364 3.2366589216 3.2494578313 3.2654882849 3.2737743069 