# vtk DataFile Version 4.2
vtk output
ASCII
DATASET UNSTRUCTURED_GRID
POINTS 40 double
-1500 -3172.4533 0 -825.07225 -3172.4533 1885 -150.1445 -3172.4533 3770 
524.78325 -3172.4533 5655 1199.711 -3172.4533 7540 -1500 3172.7852 0 
-825.07225 3172.7852 1885 -150.1445 3172.7852 3770 524.78325 3172.7852 5655 
1199.711 3172.7852 7540 470.33333333 -3172.4533 0 990.76108333 -2973.1671266 1885 
1511.1888333 -2978.0885633 3770 2031.6165833 -2974.4018855 5655 2552.0443333 -3172.4533 7540 
470.33333333 3172.7852 0 990.76108333 3366.6295666 1885 1511.1888333 3231.1214027 3770 
2031.6165833 3053.2659613 5655 2552.0443333 3172.7852 7540 2440.6666667 -3172.4533 0 
2806.5944167 -2977.542349 1885 3172.5221667 -3002.9408717 3770 3538.4499167 -2997.8250325 5655 
3904.3776667 -3172.4533 7540 2440.6666667 3172.7852 0 2806.5944167 3342.0161955 1885 
3172.5221667 3272.5790757 3770 3538.4499167 2973.2459443 5655 3904.3776667 3172.7852 7540 
4411 -3172.4533 0 4622.42775 -3172.4533 1885 4833.8555 -3172.4533 3770 
5045.28325 -3172.4533 5655 5256.711 -3172.4533 7540 4411 3172.7852 0 
4622.42775 3172.7852 1885 4833.8555 3172.7852 3770 5045.28325 3172.7852 5655 
5256.711 3172.7852 7540 
CELLS 55 275
4 0 5 15 10 
4 1 6 16 11 
4 2 7 17 12 
4 3 8 18 13 
4 4 9 19 14 
4 10 15 25 20 
4 11 16 26 21 
4 12 17 27 22 
4 13 18 28 23 
4 14 19 29 24 
4 20 25 35 30 
4 21 26 36 31 
4 22 27 37 32 
4 23 28 38 33 
4 24 29 39 34 
4 0 1 11 10 
4 1 2 12 11 
4 2 3 13 12 
4 3 4 14 13 
4 5 6 16 15 
4 6 7 17 16 
4 7 8 18 17 
4 8 9 19 18 
4 10 11 21 20 
4 11 12 22 21 
4 12 13 23 22 
4 13 14 24 23 
4 15 16 26 25 
4 16 17 27 26 
4 17 18 28 27 
4 18 19 29 28 
4 20 21 31 30 
4 21 22 32 31 
4 22 23 33 32 
4 23 24 34 33 
4 25 26 36 35 
4 26 27 37 36 
4 27 28 38 37 
4 28 29 39 38 
4 0 1 6 5 
4 1 2 7 6 
4 2 3 8 7 
4 3 4 9 8 
4 10 11 16 15 
4 11 12 17 16 
4 12 13 18 17 
4 13 14 19 18 
4 20 21 26 25 
4 21 22 27 26 
4 22 23 28 27 
4 23 24 29 28 
4 30 31 36 35 
4 31 32 37 36 
4 32 33 38 37 
4 33 34 39 38 

CELL_TYPES 55
9
9
9
9
9
9
9
9
9
9
9
9
9
9
9
9
9
9
9
9
9
9
9
9
9
9
9
9
9
9
9
9
9
9
9
9
9
9
9
9
9
9
9
9
9
9
9
9
9
9
9
9
9
9
9

POINT_DATA 40
SCALARS points_freedom int 3
LOOKUP_TABLE default
0 0 0 0 0 0 0 0 0 
0 0 0 0 0 0 0 0 0 
0 0 0 0 0 0 0 0 0 
0 0 0 0 0 0 0 1 0 
0 1 0 0 1 0 0 0 0 
0 0 0 0 1 0 0 1 0 
0 1 0 0 0 0 0 0 0 
0 1 0 0 1 0 0 1 0 
0 0 0 0 0 0 0 1 0 
0 1 0 0 1 0 0 0 0 
0 0 0 0 0 0 0 0 0 
0 0 0 0 0 0 0 0 0 
0 0 0 0 0 0 0 0 0 
0 0 0 
