# vtk DataFile Version 4.2
vtk output
ASCII
DATASET POLYDATA
POINTS 6690 float
2626.62 -2457.1 5800 2638.9 -2461.15 5800 2643.3 -2457.1 5800 
2599.42 -2444.1 5800 2609.9 -2448.89 5800 2655.04 -2444.1 5800 
2570.96 -2431.1 5800 2580.9 -2435.64 5800 2667.9 -2434.43 5800 
2671.52 -2431.09 5800 2542.51 -2418.1 5800 2551.9 -2422.39 5800 
2685.62 -2418.09 5800 2514.06 -2405.1 5800 2522.9 -2409.14 5800 
2696.91 -2408.39 5800 2701.06 -2405.09 5800 2485.6 -2392.1 5800 
2493.9 -2395.89 5800 2717.39 -2392.09 5800 2457.15 -2379.1 5800 
2464.9 -2382.64 5800 2725.91 -2385.31 5800 2733.73 -2379.09 5800 
2431.55 -2366.1 5800 2435.9 -2369.39 5800 2750.07 -2366.09 5800 
2409.61 -2353.1 5800 2754.91 -2362.23 5800 2766.4 -2353.09 5800 
2391.95 -2340.1 5800 2406.9 -2351.81 5800 2782.74 -2340.08 5800 
2373.47 -2327.1 5800 2377.9 -2330.05 5800 2783.92 -2339.15 5800 
2799.08 -2327.08 5800 2357.4 -2314.1 5800 2812.92 -2316.07 5800 
2815.41 -2314.08 5800 2341.33 -2301.1 5800 2348.9 -2307.22 5800 
2831.75 -2301.08 5800 2325.26 -2288.1 5800 2841.92 -2292.99 5800 
2848.09 -2288.08 5800 2309.2 -2275.1 5800 2319.9 -2283.76 5800 
2864.43 -2275.08 5800 2293.13 -2262.09 5800 2870.92 -2269.9 5800 
2880.76 -2262.07 5800 2277.06 -2249.09 5800 2290.91 -2260.3 5800 
2897.1 -2249.07 5800 2260.99 -2236.09 5800 2261.91 -2236.83 5800 
2899.93 -2246.82 5800 2913.44 -2236.07 5800 2244.92 -2223.09 5800 
2928.93 -2223.74 5800 2929.77 -2223.07 5800 2228.85 -2210.09 5800 
2232.91 -2213.37 5800 2946.11 -2210.07 5800 2216.16 -2197.09 5800 
2957.93 -2200.66 5800 2962.02 -2197.07 5800 2213.42 -2184.09 5800 
2977.3 -2184.07 5800 2212.11 -2171.09 5800 2986.94 -2176.19 5800 
2992.47 -2171.06 5800 2211.34 -2158.09 5800 3006.51 -2158.06 5800 
2211.54 -2145.09 5800 3015.94 -2149.33 5800 3019.69 -2145.06 5800 
2212.39 -2132.09 5800 3027.24 -2132.06 5800 2213.24 -2119.09 5800 
3030.23 -2119.06 5800 2214.09 -2106.09 5800 3031.2 -2106.06 5800 
2214.93 -2093.08 5800 3032.11 -2093.06 5800 2215.78 -2080.08 5800 
3032.81 -2080.06 5800 2216.63 -2067.08 5800 3033.3 -2067.05 5800 
2215.22 -2054.08 5800 3033.62 -2054.05 5800 2213.17 -2041.08 5800 
3033.95 -2041.05 5800 2211.12 -2028.08 5800 3034.27 -2028.05 5800 
2209.07 -2015.08 5800 3034.59 -2015.05 5800 2207.02 -2002.08 5800 
3034.91 -2002.05 5800 2204.97 -1989.08 5800 3035.23 -1989.05 5800 
2202.92 -1976.08 5800 2203.92 -1982.42 5800 3035.56 -1976.05 5800 
2200.88 -1963.08 5800 3035.88 -1963.05 5800 2198.83 -1950.07 5800 
3036.2 -1950.05 5800 2196.78 -1937.07 5800 3036.52 -1937.04 5800 
2194.73 -1924.07 5800 3036.85 -1924.04 5800 2192.68 -1911.07 5800 
3037.17 -1911.04 5800 2190.63 -1898.07 5800 3037.49 -1898.04 5800 
2188.58 -1885.07 5800 3037.81 -1885.04 5800 2186.53 -1872.07 5800 
3038.14 -1872.04 5800 2184.49 -1859.07 5800 3038.46 -1859.04 5800 
2182.44 -1846.07 5800 3038.78 -1846.04 5800 2180.39 -1833.07 5800 
3039.1 -1833.04 5800 2178.34 -1820.06 5800 3039.43 -1820.04 5800 
2176.29 -1807.06 5800 3039.75 -1807.03 5800 2174.24 -1794.06 5800 
2174.94 -1798.47 5800 3040.07 -1794.03 5800 2172.19 -1781.06 5800 
3040.39 -1781.03 5800 2170.15 -1768.06 5800 3040.71 -1768.03 5800 
2168.1 -1755.06 5800 3041.04 -1755.03 5800 2166.05 -1742.06 5800 
3042.85 -1742.03 5800 2164 -1729.06 5800 3044.97 -1734.41 5800 
3047.1 -1729.03 5800 2161.95 -1716.06 5800 3058.25 -1716.03 5800 
2159.9 -1703.06 5800 3067.04 -1703.03 5800 2157.85 -1690.06 5800 
3073.98 -1694.43 5800 3077.53 -1690.02 5800 2155.8 -1677.05 5800 
3088.01 -1677.02 5800 2152.82 -1664.05 5800 3098.5 -1664.02 5800 
2150.51 -1651.05 5800 3102.98 -1658.47 5800 3108.99 -1651.02 5800 
2148.62 -1638.05 5800 3119.47 -1638.02 5800 2147.05 -1625.05 5800 
3129.96 -1625.02 5800 2145.56 -1612.05 5800 2145.95 -1614.51 5800 
3131.98 -1622.51 5800 3140.45 -1612.02 5800 2143.51 -1599.05 5800 
3150.93 -1599.01 5800 2141.46 -1586.05 5800 3160.99 -1586.55 5800 
3161.42 -1586.01 5800 2139.42 -1573.05 5800 3171.9 -1573.01 5800 
2135.53 -1560.05 5800 3182.39 -1560.01 5800 2131.95 -1547.05 5800 
3189.99 -1550.59 5800 3192.7 -1547.01 5800 2130.01 -1534.04 5800 
3199.67 -1534.01 5800 2131.17 -1521.04 5800 3205.61 -1521.01 5800 
2129.62 -1508.04 5800 3211.55 -1508.01 5800 2127.76 -1495.04 5800 
3217.49 -1495 5800 2127.42 -1482.04 5800 3219 -1491.7 5800 
3221.79 -1482 5800 2127.71 -1469.04 5800 3224.88 -1469 5800 
2127.64 -1456.04 5800 3226.93 -1456 5800 2126.77 -1443.04 5800 
3227.33 -1443 5800 2125.9 -1430.04 5800 3227.73 -1430 5800 
2125.03 -1417.04 5800 3228.13 -1417 5800 2124.16 -1404.03 5800 
3228.53 -1404 5800 2123.29 -1391.03 5800 3228.94 -1391 5800 
2122.42 -1378.03 5800 3229.34 -1377.99 5800 2121.55 -1365.03 5800 
3229.74 -1364.99 5800 2120.68 -1352.03 5800 3230.14 -1351.99 5800 
2119.81 -1339.03 5800 3230.54 -1338.99 5800 2118.94 -1326.03 5800 
3230.95 -1325.99 5800 2118.07 -1313.03 5800 3231.35 -1312.99 5800 
2117.2 -1300.03 5800 3231.75 -1299.99 5800 2116.34 -1287.03 5800 
2116.97 -1296.71 5800 3232.2 -1286.99 5800 2115.53 -1274.03 5800 
3232.72 -1273.99 5800 2114.82 -1261.02 5800 3233.24 -1260.99 5800 
2114.11 -1248.02 5800 3233.74 -1247.98 5800 2113.39 -1235.02 5800 
3234.24 -1234.98 5800 2112.68 -1222.02 5800 3234.73 -1221.98 5800 
2111.97 -1209.02 5800 3235.22 -1208.98 5800 2111.26 -1196.02 5800 
3235.7 -1195.98 5800 2110.54 -1183.02 5800 3236.16 -1182.98 5800 
2109.83 -1170.02 5800 3236.74 -1169.98 5800 2109.12 -1157.02 5800 
3237.33 -1156.98 5800 2108.41 -1144.02 5800 3237.92 -1143.98 5800 
2107.69 -1131.01 5800 3238.52 -1130.98 5800 2106.98 -1118.01 5800 
3239.11 -1117.97 5800 2106.27 -1105.01 5800 3239.73 -1104.97 5800 
2105.55 -1092.01 5800 3240.79 -1091.97 5800 2103.31 -1079.01 5800 
3241.97 -1078.97 5800 2100.34 -1066.01 5800 3243.16 -1065.97 5800 
2097.37 -1053.01 5800 3244.42 -1052.97 5800 2094.4 -1040.01 5800 
3245.67 -1039.97 5800 2091.44 -1027.01 5800 3246.94 -1026.97 5800 
2088.47 -1014.01 5800 3248.03 -1015.76 5800 3248.21 -1013.97 5800 
2086.64 -1001.01 5800 2087.99 -1011.61 5800 3249.48 -1000.96 5800 
2088 -993.144 5800 2089.1 -988.004 5800 3250.75 -987.964 5800 
2091.25 -975.003 5800 3252.02 -974.963 5800 2093.25 -962.002 5800 
3253.29 -961.962 5800 2095.46 -949.001 5800 3254.56 -948.961 5800 
2097.68 -936 5800 3255.83 -935.96 5800 2099.9 -922.999 5800 
3257.1 -922.959 5800 2102.14 -909.997 5800 3257.21 -909.958 5800 
2104.39 -896.996 5800 3257.04 -896.957 5800 2106.65 -883.995 5800 
3256.91 -883.956 5800 2108.92 -870.994 5800 2575.57 -870.978 5800 
2581.02 -872.872 5800 2587.38 -870.978 5800 3254.58 -870.955 5800 
2111.2 -857.993 5800 2545.45 -857.978 5800 2552.02 -862.497 5800 
2610.02 -864.23 5800 2630.05 -857.975 5800 3252.21 -857.954 5800 
2113.49 -844.992 5800 2526.53 -844.978 5800 2639.03 -855.178 5800 
2666.51 -844.973 5800 3249.85 -844.953 5800 2115.79 -831.991 5800 
2509.53 -831.977 5800 2523.02 -842.567 5800 2668.03 -844.408 5800 
2697.03 -834.192 5800 2726.03 -834.448 5800 2728.69 -831.97 5800 
3248.05 -835.074 5800 3247.48 -831.952 5800 2117.01 -824.909 5800 
2117.97 -818.99 5800 2493.12 -818.977 5800 2494.02 -819.736 5800 
2740.95 -818.969 5800 3245.11 -818.951 5800 2120.08 -805.989 5800 
2477.68 -805.977 5800 2750.95 -805.967 5800 3242.69 -805.95 5800 
2122.19 -792.988 5800 2458.04 -792.976 5800 2465.02 -796.746 5800 
2755.03 -801.234 5800 2761.42 -792.966 5800 3239.76 -792.949 5800 
2124.1 -779.987 5800 2434.25 -779.976 5800 2436.02 -782.361 5800 
2775.54 -779.964 5800 3236.63 -779.948 5800 2125.06 -766.986 5800 
2426.66 -766.975 5800 2784.04 -772.15 5800 2789.67 -766.963 5800 
3234.18 -766.948 5800 2123.97 -753.985 5800 2419.07 -753.975 5800 
2803.8 -753.961 5800 3232.76 -753.947 5800 2122.31 -740.984 5800 
2411.48 -740.974 5800 2813.04 -745.596 5800 2818.77 -740.96 5800 
3231.58 -740.946 5800 2120.57 -727.983 5800 2403.61 -727.973 5800 
2407.03 -733.339 5800 2835.34 -727.958 5800 3230.58 -727.945 5800 
2118.83 -714.982 5800 2395.99 -714.972 5800 2842.04 -722.705 5800 
2851.92 -714.957 5800 3229.73 -714.944 5800 2117.09 -701.981 5800 
2388.66 -701.972 5800 2864.45 -701.955 5800 3229.49 -701.943 5800 
2115.46 -688.98 5800 2117.02 -701.415 5800 2380.96 -688.971 5800 
2871.05 -692.31 5800 2872.43 -688.954 5800 3229.48 -688.942 5800 
2116.2 -675.979 5800 2372.22 -675.97 5800 2378.03 -684.014 5800 
2877.81 -675.953 5800 3229.46 -675.941 5800 2117.02 -672.423 5800 
2119.11 -662.978 5800 2363.81 -662.969 5800 2883.19 -662.952 5800 
3229.42 -662.94 5800 2121.98 -649.977 5800 2356.41 -649.969 5800 
2888.72 -649.95 5800 3229.37 -649.939 5800 2124.85 -636.976 5800 
2349.84 -636.968 5800 2894.35 -636.949 5800 3229.32 -636.938 5800 
2127.6 -623.975 5800 2341.96 -623.967 5800 2349.03 -635.976 5800 
2900.05 -624 5800 2900.08 -623.948 5800 3229.27 -623.937 5800 
2130.38 -610.974 5800 2335.78 -610.966 5800 2905.93 -610.947 5800 
3229.22 -610.936 5800 2133.2 -597.972 5800 2330.09 -597.966 5800 
2912.23 -597.946 5800 3229.17 -597.935 5800 2136.06 -584.971 5800 
2323.17 -584.965 5800 2920.66 -584.944 5800 3229.12 -584.934 5800 
2136.27 -571.97 5800 2316.3 -571.964 5800 2320.04 -579.105 5800 
2929.06 -572.011 5800 2929.1 -571.943 5800 3229.87 -571.933 5800 
2135.28 -558.969 5800 2309.51 -558.963 5800 2936.45 -558.942 5800 
3231.62 -558.932 5800 2134.7 -545.968 5800 2302.83 -545.963 5800 
2943.42 -545.94 5800 3233.36 -545.931 5800 2133.52 -532.967 5800 
2296.35 -532.962 5800 2950.05 -532.939 5800 3235.1 -532.929 5800 
2131.47 -519.966 5800 2289.88 -519.961 5800 2291.04 -522.215 5800 
2544.96 -519.952 5800 2552.05 -522.305 5800 2581.05 -530.887 5800 
2603.37 -519.95 5800 2956.28 -519.938 5800 3236.84 -519.928 5800 
1711.02 -507.978 5800 1699.57 -506.98 5800 1740.02 -510.612 5800 
1769.02 -513.145 5800 1798.02 -508.218 5800 1804.88 -506.977 5800 
2130.62 -506.966 5800 2283.19 -506.96 5800 2502.91 -506.953 5800 
2523.05 -512.684 5800 2610.05 -516.34 5800 2627.36 -506.948 5800 
2958.06 -516.143 5800 2962.55 -506.937 5800 3238.62 -506.927 5800 
3596.08 -509.596 5800 3594.56 -506.915 5800 3625.09 -516.444 5800 
3654.09 -507.78 5800 3656.08 -506.913 5800 1595.02 -497.87 5800 
[...]
POINT_DATA 6690
SCALARS Pressure double
LOOKUP_TABLE default
3.0932710339 3.0932710339 3.0932710339 3.0932710339 3.0932710339 3.0932710339 3.0932710339 3.0932710339 3.0932710339 
3.0932710339 3.0932710339 3.0932710339 3.0932710339 3.0932710339 3.0932710339 3.0932710339 3.0932710339 3.0932710339 
3.0932710339 3.0932710339 3.0932710339 3.0932710339 3.0932710339 3.0932710339 3.0932710339 3.0932710339 3.0932710339 
3.0932710339 3.0932710339 3.0932710339 3.0932710339 3.0932710339 3.0932710339 3.0932710339 3.0932710339 3.0932710339 
3.0932710339 3.0932710339 3.0932710339 3.0932710339 3.0932710339 3.0932710339 3.0932710339 3.0932710339 3.0932710339 
3.0932710339 3.0932710339 3.0932710339 3.0932710339 3.0932710339 3.0932710339 3.0932710339 3.0932710339 3.0932710339 
3.0932710339 3.0932710339 3.0932710339 3.0932710339 3.0932710339 3.0932710339 3.0932710339 3.0932710339 3.0932710339 
3.0932710339 3.0932710339 3.0932710339 3.0932710339 3.0932710339 3.0932710339 3.0932710339 3.0932710339 3.0932710339 
3.0932710339 3.0932710339 3.0932710339 3.0932710339 3.0932710339 3.0932710339 3.0932710339 3.0932710339 3.0932710339 
3.0932710339 3.0932710339 3.0932710339 3.0932710339 3.0932710339 3.0932710339 3.0932710339 3.0932710339 3.0932710339 
3.0932710339 3.0932710339 3.0932710339 3.0932710339 3.0932710339 3.0932710339 3.0932710339 3.0932710339 3.0932710339 
3.0932710339 3.0932710339 3.0932710339 3.0932710339 3.0932710339 3.0932710339 3.0932710339 3.0932710339 3.0932710339 
3.0932710339 3.0932710339 3.0932710339 3.0932710339 3.0932710339 3.0932710339 3.0932710339 3.0932710339 3.0932710339 
3.0932710339 3.0932710339 3.0932710339 3.0932710339 3.0932710339 3.0932710339 3.0932710339 3.0932710339 3.0932710339 
3.0932710339 3.0932710339 3.0932710339 3.0932710339 3.0932710339 3.0932710339 3.0932710339 3.0932710339 3.0932710339 
3.0932710339 3.0932710339 3.0932710339 3.0932710339 3.0932710339 3.0932710339 3.0932710339 3.0932710339 3.0932710339 
3.0932710339 3.0932710339 3.0932710339 3.0932710339 3.0932710339 3.0932710339 3.0932710339 3.0932710339 3.0932710339 
3.0932710339 3.0932710339 3.0932710339 3.0932710339 3.0932710339 3.0932710339 3.0932710339 3.0932710339 3.0932710339 
3.0932710339 3.0932710339 3.0932710339 3.0932710339 3.0932710339 3.0932710339 3.0932710339 3.0932710339 3.0932710339 
3.0932710339 3.0932710339 3.0932710339 3.0932710339 3.0932710339 3.0932710339 3.0932710339 3.0932710339 3.0932710339 
3.0932710339 3.0932710339 3.0932710339 3.0932710339 3.0932710339 3.0932710339 3.0932710339 3.0932710339 3.0932710339 
3.0932710339 3.0932710339 3.0932710339 3.0932710339 3.0932710339 3.0932710339 3.0932710339 3.0932710339 3.0932710339 
3.0932710339 3.0932710339 3.0932710339 3.0932710339 3.0932710339 3.0932710339 3.0932710339 3.0932710339 3.0932710339 
3.0932710339 3.0932710339 3.0932710339 3.0932710339 3.0932710339 3.0932710339 3.0932710339 3.0932710339 3.0932710339 
3.0932710339 3.0932710339 3.0932710339 3.0932710339 3.0932710339 3.0932710339 3.0932710339 3.0932710339 3.0932710339 
3.0932710339 3.0932710339 3.0932710339 3.0932710339 3.0932710339 3.0932710339 3.0932710339 3.0932710339 3.0932710339 
3.0932710339 3.0932710339 3.0932710339 3.0932710339 3.0932710339 3.0932710339 3.0932710339 3.0932710339 3.0932710339 
3.0932710339 3.0932710339 3.0932710339 3.0932710339 3.0932710339 3.0932710339 3.0932710339 3.0932710339 3.0932710339 
3.0932710339 3.0932710339 3.0932710339 3.0932710339 3.0932710339 3.0932710339 3.0932710339 3.0932710339 3.0932710339 
3.0932710339 3.0932710339 3.0932710339 3.0932710339 3.0932710339 3.0932710339 3.0932710339 3.0932710339 3.0932710339 
3.0932710339 3.0932710339 3.0932710339 3.0932710339 3.0932710339 3.0932710339 3.0932710339 3.0932710339 3.0932710339 
3.0932710339 3.0932710339 3.0932710339 3.0932710339 3.0932710339 3.0932710339 3.0932710339 3.0932710339 3.1078652246 
3.1078652246 3.1078652246 3.0932710339 3.0932710339 3.1078652246 3.1078652246 3.1078652246 3.1078652246 3.0932710339 
3.0932710339 3.1078652246 3.1078652246 3.1078652246 3.0932710339 3.0932710339 3.1078652246 3.1078652246 3.1078652246 
3.1078652246 3.1078652246 3.1078652246 3.0932710339 3.0932710339 3.0932710339 3.0932710339 3.1078652246 3.1078652246 
3.1078652246 3.0932710339 3.0932710339 3.1078652246 3.1078652246 3.0932710339 3.0932710339 3.1078652246 3.1078652246 
3.1078652246 3.1078652246 3.0932710339 3.0932710339 3.1078652246 3.1078652246 3.1078652246 3.0932710339 3.0932710339 
3.1078652246 3.1078652246 3.1078652246 3.0932710339 3.0932710339 3.1078652246 3.1078652246 3.0932710339 3.0932710339 
3.1078652246 3.1078652246 3.1078652246 3.0932710339 3.0932710339 3.1078652246 3.1078652246 3.1078652246 3.0932710339 
3.0932710339 3.1078652246 3.1078652246 3.1078652246 3.0932710339 3.0932710339 3.1078652246 3.1078652246 3.0932710339 
3.0932710339 3.0932710339 3.1078652246 3.1078652246 3.1078652246 3.0932710339 3.0932710339 3.1078652246 3.1078652246 
3.1078652246 3.0932710339 3.0932710339 3.0932710339 3.1078652246 3.1078652246 3.0932710339 3.0932710339 3.1078652246 
3.1078652246 3.0932710339 3.0932710339 3.1078652246 3.1078652246 3.0932710339 3.0932710339 3.1078652246 3.1078652246 
3.1078652246 3.1078652246 3.0932710339 3.0932710339 3.1078652246 3.1078652246 3.0932710339 3.0932710339 3.1078652246 
3.1078652246 3.0932710339 3.0932710339 3.1078652246 3.1078652246 3.0932710339 3.0932710339 3.1078652246 3.1078652246 
3.1078652246 3.1078652246 3.0932710339 3.0932710339 3.1078652246 3.1078652246 3.0932710339 3.0932710339 3.1078652246 
3.1078652246 3.0932710339 3.0932710339 3.1078652246 3.1078652246 3.0932710339 3.0932710339 3.1078652246 3.1078652246 
3.1224594153 3.1224594153 3.1224594153 3.1224594153 3.1078652246 3.0932710339 3.0786768432 3.0786768432 3.0786768432 
3.0786768432 3.0786768432 3.0786768432 3.0932710339 3.1078652246 3.1224594153 3.1224594153 3.1224594153 3.1224594153 
3.1078652246 3.1078652246 3.0932710339 3.0786768432 3.0786768432 3.0786768432 3.0786768432 3.0786768432 3.0786768432 
3.0786768432 3.0786768432 3.0786768432 3.0786768432 3.0786768432 3.0786768432 3.0786768432 3.0932710339 3.1078652246 
3.1224594153 3.1224594153 3.1224594153 3.1224594153 3.1224594153 3.1078652246 3.0932710339 3.0786768432 3.0786768432 
3.0786768432 3.0786768432 3.0786768432 3.0932710339 3.1078652246 3.1224594153 3.1224594153 3.1224594153 3.1078652246 
3.0932710339 3.0786768432 3.0786768432 3.0786768432 3.0786768432 3.0786768432 3.0786768432 3.0786768432 3.0932710339 
3.1078652246 3.1224594153 3.1224594153 3.1224594153 3.1224594153 3.1078652246 3.0932710339 3.0786768432 3.0786768432 
3.0786768432 3.0786768432 3.0786768432 3.0932710339 3.1078652246 3.1224594153 3.1224594153 3.1078652246 3.1078652246 
3.0932710339 3.0786768432 3.0786768432 3.0786768432 3.0786768432 3.0786768432 3.0786768432 3.0932710339 3.1078652246 
3.1224594153 3.1224594153 3.1078652246 3.0932710339 3.0786768432 3.0786768432 3.0786768432 3.0786768432 3.0786768432 
3.0786768432 3.0932710339 3.1078652246 3.1078652246 3.1224594153 3.1224594153 3.1224594153 3.1224594153 3.1078652246 
3.0932710339 3.0932710339 3.0786768432 3.0786768432 3.0786768432 3.0786768432 3.0932710339 3.1078652246 3.1224594153 
3.1224594153 3.1078652246 3.0932710339 3.0786768432 3.0786768432 3.0786768432 3.0786768432 3.0786768432 3.0786768432 
3.0932710339 3.1078652246 3.1224594153 3.1224594153 3.1224594153 3.1224594153 3.1078652246 3.0932710339 3.0786768432 
3.0786768432 3.0786768432 3.0786768432 3.0786768432 3.0932710339 3.0932710339 3.1078652246 3.1224594153 3.1224594153 
3.1078652246 3.1078652246 3.0932710339 3.0786768432 3.0786768432 3.0786768432 3.0786768432 3.0786768432 3.0786768432 
3.0786768432 3.0786768432 3.0932710339 3.1078652246 3.1224594153 3.1224594153 3.1224594153 3.1078652246 3.0932710339 
3.0786768432 3.0786768432 3.0786768432 3.0786768432 3.0932710339 3.1078652246 3.1224594153 3.1224594153 3.1078652246 
3.0932710339 3.0786768432 3.0786768432 3.0786768432 3.0786768432 3.0786768432 3.0932710339 3.1078652246 3.1224594153 
3.1224594153 3.1224594153 3.1078652246 3.0932710339 3.0786768432 3.0786768432 3.0786768432 3.0786768432 3.0786768432 
3.0786768432 3.0932710339 3.1078652246 3.1224594153 3.1224594153 3.1078652246 3.0932710339 3.0786768432 3.0786768432 
3.0786768432 3.0786768432 3.0786768432 3.0932710339 3.1078652246 3.1224594153 3.137053606 3.137053606 3.137053606 
3.137053606 3.137053606 3.1224594153 3.1224594153 3.1078652246 3.0932710339 3.0786768432 3.0786768432 3.0786768432 
3.0786768432 3.0786768432 3.0932710339 3.1078652246 3.1224594153 3.1224594153 3.137053606 3.137053606 3.137053606 
3.137053606 3.1224594153 3.1078652246 3.1078652246 3.0932710339 3.0786768432 3.0786768432 3.0786768432 3.0786768432 
3.0786768432 3.0932710339 3.1078652246 3.1224594153 3.137053606 3.137053606 3.137053606 3.1224594153 3.1078652246 
3.0932710339 3.0786768432 3.0786768432 3.0786768432 3.0786768432 3.0786768432 3.0932710339 3.1078652246 3.1078652246 
3.1224594153 3.137053606 3.137053606 3.137053606 3.1224594153 3.1078652246 3.0932710339 3.0786768432 3.0786768432 
3.0786768432 3.0786768432 3.0786768432 3.0932710339 3.1078652246 3.1224594153 3.137053606 3.137053606 3.137053606 
3.137053606 3.1224594153 3.1224594153 3.1078652246 3.0932710339 3.0786768432 3.0786768432 3.0786768432 3.0786768432 
3.0932710339 3.1078652246 3.1224594153 3.1224594153 3.137053606 3.137053606 3.1224594153 3.1078652246 3.0932710339 
3.0786768432 3.0786768432 3.0786768432 3.0786768432 3.0786768432 3.0932710339 3.1078652246 3.1224594153 3.137053606 
3.137053606 3.137053606 3.137053606 3.1224594153 3.1078652246 3.0932710339 3.0786768432 3.0786768432 3.0786768432 
3.0786768432 3.0786768432 3.0932710339 3.1078652246 3.1224594153 3.137053606 3.137053606 3.1224594153 3.1078652246 
3.0932710339 3.0786768432 3.0786768432 3.0786768432 3.0786768432 3.0786768432 3.0932710339 3.1078652246 3.1224594153 
3.137053606 3.137053606 3.137053606 3.1224594153 3.1078652246 3.0932710339 3.0786768432 3.0786768432 3.0786768432 
3.0786768432 3.0786768432 3.0640826525 3.0640826525 3.0640826525 3.0640826525 3.0640826525 3.0640826525 3.0786768432 
3.0932710339 3.1078652246 3.1224594153 3.137053606 3.137053606 3.1224594153 3.1224594153 3.1078652246 3.0932710339 
3.0786768432 3.0786768432 3.0786768432 3.0640826525 3.0640826525 3.0640826525 3.0640826525 3.0640826525 3.0786768432 
3.0932710339 3.1078652246 3.1224594153 3.1224594153 3.137053606 3.137053606 3.137053606 3.1224594153 3.1078652246 
3.0932710339 3.0786768432 3.0786768432 3.0786768432 3.0640826525 3.0640826525 3.0640826525 3.0786768432 3.0932710339 
3.1078652246 3.1078652246 3.1224594153 3.137053606 3.137053606 3.1516477967 3.1516477967 3.1516477967 3.1516477967 
3.137053606 3.1224594153 3.1078652246 3.0932710339 3.0786768432 3.0786768432 3.0786768432 3.0640826525 3.0640826525 
3.0640826525 3.0786768432 3.0932710339 3.1078652246 3.1224594153 3.137053606 3.1516477967 3.1516477967 3.1516477967 
3.1516477967 3.137053606 3.1224594153 3.1078652246 3.0932710339 3.0786768432 3.0786768432 3.0786768432 3.0786768432 
3.0640826525 3.0640826525 3.0640826525 3.0786768432 3.0932710339 3.1078652246 3.1224594153 3.137053606 3.137053606 
3.1516477967 3.1516477967 3.1516477967 3.1516477967 3.137053606 3.1224594153 3.1078652246 3.0932710339 3.0786768432 
3.0786768432 3.0786768432 3.0786768432 3.0640826525 3.0640826525 3.0786768432 3.0786768432 3.0932710339 3.1078652246 
3.1224594153 3.1224594153 3.137053606 3.1516477967 3.1516477967 3.1516477967 3.137053606 3.1224594153 3.1078652246 
3.0932710339 3.0786768432 3.0786768432 3.0786768432 3.0786768432 3.0786768432 3.0786768432 3.0786768432 3.0786768432 
3.0786768432 3.0640826525 3.0640826525 3.0786768432 3.0932710339 3.1078652246 3.1224594153 3.137053606 3.1516477967 
3.1516477967 3.1516477967 3.137053606 3.1224594153 3.1078652246 3.0932710339 3.0786768432 3.0786768432 3.0786768432 
3.0786768432 3.0786768432 3.0640826525 3.0640826525 3.0786768432 3.0932710339 3.1078652246 3.1224594153 3.137053606 
3.1516477967 3.1516477967 3.1516477967 3.137053606 3.1224594153 3.1078652246 3.0932710339 3.0786768432 3.0786768432 
3.0786768432 3.0640826525 3.0640826525 3.0494884618 3.0494884618 3.0494884618 3.0494884618 3.0494884618 3.0494884618 
3.0640826525 3.0640826525 3.0786768432 3.0932710339 3.1078652246 3.1224594153 3.137053606 3.137053606 3.1516477967 
3.1516477967 3.1516477967 3.137053606 3.1224594153 3.1078652246 3.0932710339 3.0932710339 3.0786768432 3.0786768432 
3.0786768432 3.0786768432 3.0786768432 3.0640826525 3.0494884618 3.0494884618 3.0494884618 3.0640826525 3.0786768432 
3.0932710339 3.1078652246 3.1224594153 3.1224594153 3.137053606 3.1516477967 3.1516477967 3.137053606 3.1224594153 
3.1078652246 3.0932710339 3.0786768432 3.0640826525 3.0640826525 3.0640826525 3.0640826525 3.0640826525 3.0786768432 
3.0786768432 3.0640826525 3.0494884618 3.0494884618 3.0494884618 3.0640826525 3.0786768432 3.0932710339 3.1078652246 
3.1078652246 3.1224594153 3.137053606 3.1516477967 3.1516477967 3.137053606 3.1224594153 3.1078652246 3.0932710339 
3.0786768432 3.0786768432 3.0640826525 3.0640826525 3.0786768432 3.0786768432 3.0786768432 3.0640826525 3.0494884618 
3.0494884618 3.0640826525 3.0786768432 3.0932710339 3.0932710339 3.1078652246 3.1224594153 3.137053606 3.137053606 
3.1516477967 3.1516477967 3.1516477967 3.137053606 3.1224594153 3.1224594153 3.1078652246 3.0932710339 3.0786768432 
3.0640826525 3.0640826525 3.0640826525 3.0640826525 3.0786768432 3.0786768432 3.0786768432 3.0786768432 3.0640826525 
3.0494884618 3.0348942711 3.0348942711 3.0348942711 3.0348942711 3.0348942711 3.0494884618 3.0494884618 3.0640826525 
3.0786768432 3.0932710339 3.1078652246 3.1224594153 3.137053606 3.1516477967 2.9473291268 2.9473291268 2.9619233175 
2.9619233175 2.9765175082 2.9765175082 2.991111699 2.991111699 3.0057058897 3.0057058897 3.0203000804 3.0203000804 
3.0348942711 3.0348942711 3.0494884618 3.0494884618 3.0640826525 3.0640826525 3.0786768432 3.0786768432 3.0932710339 
3.0932710339 3.1078652246 3.1078652246 3.1224594153 3.1224594153 3.137053606 3.137053606 3.1516477967 3.1516477967 
2.9473291268 2.9619233175 2.9765175082 2.991111699 3.0057058897 3.0203000804 3.0348942711 3.0494884618 3.0640826525 
3.0786768432 3.0932710339 3.1078652246 3.1224594153 3.137053606 3.1516477967 2.9473291268 2.9619233175 2.9765175082 
2.991111699 3.0057058897 3.0203000804 3.0348942711 3.0494884618 3.0640826525 3.0786768432 3.0932710339 3.1078652246 
3.1224594153 3.137053606 3.1516477967 2.9473291268 2.9619233175 2.9765175082 2.991111699 3.0057058897 3.0203000804 
3.0348942711 3.0494884618 3.0640826525 3.0786768432 3.0932710339 3.1078652246 3.1224594153 3.137053606 3.1516477967 
2.9473291268 2.9619233175 2.9765175082 2.991111699 3.0057058897 3.0203000804 3.0348942711 3.0494884618 3.0640826525 
3.0786768432 3.0932710339 3.1078652246 3.1224594153 3.137053606 3.1516477967 2.9473291268 2.9619233175 2.9765175082 
2.991111699 3.0057058897 3.0203000804 3.0348942711 3.0494884618 3.0640826525 3.0786768432 3.0932710339 3.1078652246 
3.1224594153 3.137053606 3.1516477967 2.9473291268 2.9619233175 2.9765175082 2.991111699 3.0057058897 3.0203000804 
3.0348942711 3.0494884618 3.0640826525 3.0786768432 3.0932710339 3.1078652246 3.1224594153 3.137053606 3.1516477967 
2.9473291268 2.9619233175 2.9765175082 2.991111699 3.0057058897 3.0203000804 3.0348942711 3.0494884618 3.0640826525 
3.0786768432 3.0932710339 3.1078652246 3.1224594153 3.137053606 3.1516477967 2.9473291268 2.9619233175 2.9765175082 
2.991111699 3.0057058897 3.0203000804 3.0348942711 3.0494884618 3.0640826525 3.0786768432 3.0932710339 3.1078652246 
3.1224594153 3.137053606 3.1516477967 2.9473291268 2.9619233175 2.9765175082 2.991111699 3.0057058897 3.0203000804 
3.0348942711 3.0494884618 3.0640826525 3.0786768432 3.0932710339 3.1078652246 3.1224594153 3.137053606 3.1516477967 
2.9473291268 2.9619233175 2.9765175082 2.991111699 3.0057058897 3.0203000804 3.0348942711 3.0494884618 3.0640826525 
3.0786768432 3.0932710339 3.1078652246 3.1224594153 3.137053606 2.9473291268 2.9619233175 2.9765175082 2.991111699 
3.0057058897 3.0203000804 3.0348942711 3.0494884618 3.0640826525 3.0786768432 3.0932710339 3.1078652246 3.1224594153 
3.137053606 2.9473291268 2.9619233175 2.9765175082 2.991111699 3.0057058897 3.0203000804 3.0348942711 3.0494884618 
3.0640826525 3.0786768432 3.0932710339 3.1078652246 3.1224594153 3.137053606 2.9473291268 2.9619233175 2.9765175082 
2.991111699 3.0057058897 3.0203000804 3.0348942711 3.0494884618 3.0640826525 3.0786768432 3.0932710339 3.1078652246 
3.1224594153 3.137053606 2.9473291268 2.9619233175 2.9765175082 2.991111699 3.0057058897 3.0203000804 3.0348942711 
3.0494884618 3.0640826525 3.0786768432 3.0932710339 3.1078652246 3.1224594153 2.9473291268 2.9619233175 2.9765175082 
2.991111699 3.0057058897 3.0203000804 3.0348942711 3.0494884618 3.0640826525 3.0786768432 3.0932710339 3.1078652246 
3.1224594153 3.1224594153 3.1078652246 3.0932710339 3.0786768432 3.0640826525 3.0640826525 3.0640826525 3.0786768432 
3.0786768432 3.0640826525 3.0494884618 3.0348942711 3.0348942711 3.0494884618 3.0640826525 3.0786768432 3.0932710339 
3.1078652246 2.9473291268 2.9473291268 2.9619233175 2.9619233175 2.9765175082 2.9765175082 2.991111699 2.991111699 
3.0057058897 3.0057058897 3.0203000804 3.0203000804 3.0348942711 3.0348942711 3.0494884618 3.0494884618 3.0640826525 
3.0640826525 3.0786768432 3.0786768432 3.0932710339 3.0932710339 3.1078652246 3.1078652246 3.1224594153 2.9473291268 
2.9619233175 2.9765175082 2.991111699 3.0057058897 3.0203000804 3.0348942711 3.0494884618 3.0640826525 3.0786768432 
3.0932710339 3.1078652246 3.1224594153 3.137053606 2.9473291268 2.9619233175 2.9765175082 2.991111699 3.0057058897 
3.0203000804 3.0348942711 3.0494884618 3.0640826525 3.0786768432 3.0932710339 3.1078652246 3.1224594153 3.137053606 
2.9473291268 2.9619233175 2.9765175082 2.991111699 3.0057058897 3.0203000804 3.0348942711 3.0494884618 3.0640826525 
3.0786768432 3.0932710339 3.1078652246 3.1224594153 3.137053606 3.1516477967 2.9473291268 2.9619233175 2.9765175082 
2.991111699 3.0057058897 3.0203000804 3.0348942711 3.0494884618 3.0640826525 3.0786768432 3.0932710339 3.1078652246 
3.1224594153 2.9473291268 2.9619233175 2.9765175082 2.991111699 3.0057058897 3.0203000804 3.0348942711 3.0494884618 
3.0640826525 3.0786768432 3.0932710339 3.1078652246 3.1224594153 2.9473291268 2.9619233175 2.9765175082 2.991111699 
3.0057058897 3.0203000804 3.0348942711 3.0494884618 3.0640826525 3.0786768432 3.0932710339 3.1078652246 3.1224594153 
2.9473291268 2.9619233175 2.9765175082 2.991111699 3.0057058897 3.0203000804 3.0348942711 3.0494884618 3.0640826525 
3.0786768432 3.0932710339 3.1078652246 3.1224594153 2.9473291268 2.9619233175 2.9765175082 2.991111699 3.0057058897 
3.0203000804 3.0348942711 3.0494884618 3.0640826525 3.0786768432 3.0932710339 3.1078652246 2.9473291268 2.9619233175 
2.9765175082 2.991111699 3.0057058897 3.0203000804 3.0348942711 3.0494884618 3.0640826525 3.0786768432 3.0932710339 
3.1078652246 2.9473291268 2.9619233175 2.9765175082 2.991111699 3.0057058897 3.0203000804 3.0348942711 3.0494884618 
3.0640826525 3.0786768432 3.0932710339 3.1078652246 2.9473291268 2.9619233175 2.9765175082 2.991111699 3.0057058897 
3.0203000804 3.0348942711 3.0494884618 3.0640826525 3.0786768432 3.0932710339 3.1078652246 3.1078652246 3.0932710339 
3.0786768432 3.0640826525 3.0640826525 3.0640826525 3.0786768432 3.0786768432 3.0786768432 3.0640826525 3.0494884618 
3.0348942711 3.0348942711 3.0203000804 3.0203000804 3.0203000804 3.0203000804 3.0348942711 3.0494884618 3.0640826525 
3.0786768432 3.0932710339 2.9473291268 2.9473291268 2.9619233175 2.9619233175 2.9765175082 2.9765175082 2.991111699 
2.991111699 3.0057058897 3.0057058897 3.0203000804 3.0203000804 3.0348942711 3.0348942711 3.0494884618 3.0494884618 
3.0640826525 3.0640826525 3.0786768432 3.0786768432 3.0932710339 3.0932710339 3.1078652246 2.9473291268 2.9619233175 