# vtk DataFile Version 4.2
vtk output
ASCII
DATASET POLYDATA
POINTS 7367 float
1603.44 -2873.13 0 1627.87 -2878.43 0 1640.68 -2873.12 0 
1548.78 -2856.13 0 1553.87 -2857.94 0 1590.87 -2871.11 0 
1664.88 -2860.08 0 1691.24 -2856.12 0 1501.04 -2839.13 0 
1516.87 -2844.76 0 1701.88 -2854.51 0 1738.88 -2849.03 0 
1775.88 -2843.54 0 1805.68 -2839.12 0 1453.3 -2822.13 0 
1479.87 -2831.59 0 1812.88 -2838.05 0 1849.88 -2832.56 0 
1886.88 -2827.07 0 1920.32 -2822.11 0 1405.55 -2805.13 0 
1405.87 -2805.24 0 1442.87 -2818.42 0 1923.89 -2821.58 0 
1960.89 -2816.1 0 1997.89 -2810.61 0 2034.89 -2805.12 0 
2034.95 -2805.11 0 1357.81 -2788.13 0 1368.87 -2792.07 0 
2071.89 -2799.63 0 2108.89 -2794.14 0 2145.89 -2788.65 0 
2149.59 -2788.11 0 1310.07 -2771.13 0 1331.87 -2778.89 0 
2182.9 -2783.17 0 2190.9 -2771.1 0 1262.32 -2754.13 0 
1294.87 -2765.72 0 2197.24 -2754.1 0 1214.58 -2737.13 0 
1220.87 -2739.37 0 1257.87 -2752.54 0 2199.91 -2737.1 0 
1166.84 -2720.13 0 1183.87 -2726.19 0 2202.58 -2720.1 0 
1119.09 -2703.13 0 1146.87 -2713.02 0 2205.25 -2703.1 0 
1085.82 -2686.13 0 1109.87 -2699.84 0 2207.93 -2686.1 0 
1060.85 -2669.13 0 1072.87 -2677.39 0 2210.6 -2669.1 0 
1036.12 -2652.13 0 2213.27 -2652.1 0 1011.38 -2635.13 0 
1035.87 -2651.96 0 2215.94 -2635.09 0 986.648 -2618.13 0 
998.872 -2626.53 0 2218.61 -2618.09 0 961.913 -2601.13 0 
2219.91 -2609.87 0 2221.29 -2601.09 0 954.512 -2584.13 0 
961.873 -2601.1 0 2223.96 -2584.09 0 947.32 -2567.13 0 
2226.63 -2567.09 0 940.302 -2550.12 0 2229.3 -2550.09 0 
933.451 -2533.12 0 2231.97 -2533.09 0 926.762 -2516.12 0 
2234.65 -2516.09 0 920.411 -2499.12 0 924.877 -2511.26 0 
2237.32 -2499.09 0 914.154 -2482.12 0 2239.99 -2482.09 0 
907.898 -2465.12 0 2242.66 -2465.08 0 901.641 -2448.12 0 
2245.34 -2448.08 0 895.385 -2431.12 0 2248.01 -2431.08 0 
889.128 -2414.12 0 2250.68 -2414.08 0 882.871 -2397.12 0 
887.882 -2410.73 0 2253.35 -2397.08 0 876.615 -2380.12 0 
2256.02 -2380.08 0 870.358 -2363.12 0 2256.92 -2374.37 0 
2258.7 -2363.08 0 864.102 -2346.11 0 2261.37 -2346.08 0 
857.845 -2329.11 0 2264.04 -2329.08 0 851.589 -2312.11 0 
2266.71 -2312.07 0 845.332 -2295.11 0 850.887 -2310.21 0 
2269.38 -2295.07 0 839.076 -2278.11 0 2272.06 -2278.07 0 
832.819 -2261.11 0 2274.73 -2261.07 0 826.562 -2244.11 0 
2285.08 -2244.07 0 820.306 -2227.11 0 2293.93 -2231.58 0 
2297.13 -2227.07 0 814.049 -2210.11 0 2309.18 -2210.07 0 
807.793 -2193.11 0 813.892 -2209.68 0 2321.22 -2193.07 0 
801.536 -2176.11 0 2330.93 -2179.36 0 2333.27 -2176.06 0 
795.279 -2159.11 0 2345.32 -2159.06 0 789.023 -2142.1 0 
2357.36 -2142.06 0 785.338 -2125.1 0 2367.94 -2127.14 0 
2369.41 -2125.06 0 782.847 -2108.1 0 2381.46 -2108.06 0 
780.469 -2091.1 0 2393.51 -2091.06 0 778.092 -2074.1 0 
2404.94 -2074.92 0 2405.55 -2074.06 0 775.714 -2057.1 0 
776.9 -2065.58 0 2417.6 -2057.06 0 773.337 -2040.1 0 
2429.65 -2040.05 0 770.959 -2023.1 0 2441.7 -2023.05 0 
768.582 -2006.1 0 2441.95 -2022.7 0 2449.39 -2006.05 0 
766.204 -1989.1 0 2454.02 -1989.05 0 763.827 -1972.1 0 
2453.8 -1972.05 0 761.449 -1955.09 0 2452.64 -1955.05 0 
759.072 -1938.09 0 2451.48 -1938.05 0 756.694 -1921.09 0 
2450.32 -1921.05 0 754.317 -1904.09 0 2449.17 -1904.05 0 
751.939 -1887.09 0 2448.01 -1887.04 0 749.562 -1870.09 0 
2446.85 -1870.04 0 747.184 -1853.09 0 2445.69 -1853.04 0 
744.807 -1836.09 0 2444.54 -1836.04 0 742.429 -1819.09 0 
2443.38 -1819.04 0 740.049 -1802.09 0 2442.22 -1802.04 0 
737.674 -1785.09 0 739.914 -1801.1 0 2441.96 -1798.21 0 
2441.06 -1785.04 0 735.297 -1768.08 0 2439.91 -1768.04 0 
730.644 -1751.08 0 2438.75 -1751.04 0 724.912 -1734.08 0 
2437.59 -1734.04 0 720.574 -1717.08 0 2436.43 -1717.04 0 
714.891 -1700.08 0 2435.28 -1700.03 0 708.268 -1683.08 0 
2434.12 -1683.03 0 700.417 -1666.08 0 702.921 -1672.34 0 
2432.96 -1666.03 0 694.864 -1649.08 0 2431.8 -1649.03 0 
691.376 -1632.08 0 2430.64 -1632.03 0 -481.108 -1617.04 0 
-484.837 -1615.11 0 -444.107 -1619.26 0 -431.349 -1615.11 0 
687.651 -1615.08 0 2429.56 -1615.03 0 -517.645 -1598.11 0 
-407.106 -1607.21 0 -379.128 -1598.1 0 683.926 -1598.08 0 
2429.57 -1598.03 0 -518.108 -1597.87 0 -550.454 -1581.11 0 
-370.104 -1595.17 0 -333.102 -1583.12 0 -326.908 -1581.1 0 
680.201 -1581.07 0 2430.57 -1581.03 0 -555.108 -1578.7 0 
-583.263 -1564.11 0 -296.1 -1571.07 0 -274.688 -1564.1 0 
676.476 -1564.07 0 2431.56 -1564.03 0 -592.108 -1559.53 0 
-616.072 -1547.11 0 -259.099 -1559.02 0 -222.467 -1547.1 0 
672.751 -1547.07 0 2432.56 -1547.03 0 -629.108 -1540.35 0 
-648.881 -1530.11 0 -222.097 -1546.98 0 -185.095 -1534.93 0 
-170.247 -1530.09 0 669.026 -1530.07 0 2433.56 -1530.02 0 
-666.107 -1521.18 0 -681.69 -1513.11 0 -148.094 -1522.88 0 
-118.027 -1513.09 0 665.301 -1513.07 0 665.929 -1515.94 0 
2434.55 -1513.02 0 -703.107 -1502.01 0 -714.499 -1496.11 0 
-111.092 -1510.83 0 -74.0901 -1498.53 0 -71.6012 -1496.09 0 
661.576 -1496.07 0 2435.55 -1496.02 0 -740.107 -1482.84 0 
-744.5 -1479.11 0 -55.336 -1479.09 0 657.851 -1479.07 0 
2436.55 -1479.02 0 -757.82 -1462.11 0 -37.0872 -1465.15 0 
-35.0839 -1462.09 0 654.126 -1462.07 0 2437.54 -1462.02 0 
-769.72 -1445.11 0 -22.9268 -1445.09 0 650.401 -1445.07 0 
2438.54 -1445.02 0 -777.105 -1434.55 0 -781.62 -1428.11 0 
-10.6319 -1428.08 0 646.675 -1428.07 0 2439.54 -1428.02 0 
-793.52 -1411.1 0 -0.083142 -1413.5 0 1.66298 -1411.08 0 
642.951 -1411.07 0 2440.53 -1411.02 0 -805.419 -1394.1 0 
13.9579 -1394.08 0 639.225 -1394.06 0 2441.53 -1394.02 0 
-814.103 -1381.7 0 -817.319 -1377.1 0 26.2528 -1377.08 0 
635.5 -1377.06 0 1347.31 -1377.04 0 1368.96 -1385.09 0 
1405.96 -1390.09 0 1442.96 -1391.37 0 1479.96 -1392.65 0 
1516.96 -1393.91 0 1539.19 -1377.04 0 2441.98 -1386.26 0 
2442.53 -1377.02 0 -829.219 -1360.1 0 36.9209 -1362.33 0 
38.5477 -1360.08 0 631.775 -1360.06 0 1301.57 -1360.04 0 
1331.96 -1371.34 0 1553.96 -1362.78 0 1556.8 -1360.04 0 
2443.52 -1360.01 0 -841.118 -1343.1 0 50.8426 -1343.08 0 
628.05 -1343.06 0 628.938 -1347.11 0 1255.83 -1343.05 0 
1257.95 -1343.83 0 1294.96 -1357.59 0 1574.42 -1343.04 0 
2444.52 -1343.01 0 -851.101 -1328.84 0 -853.018 -1326.1 0 
63.1374 -1326.08 0 624.325 -1326.06 0 1215.76 -1326.05 0 
1220.95 -1330.08 0 1590.96 -1327.06 0 1592.03 -1326.04 0 
2445.52 -1326.01 0 -864.918 -1309.1 0 73.9249 -1311.16 0 
75.4324 -1309.07 0 618.594 -1309.06 0 1190.42 -1309.04 0 
1609.64 -1309.03 0 2446.51 -1309.01 0 -876.818 -1292.1 0 
87.7273 -1292.07 0 608.703 -1292.06 0 1167.39 -1292.04 0 
1183.96 -1305.31 0 1627.25 -1292.03 0 2447.51 -1292.01 0 
-888.099 -1275.98 0 -888.717 -1275.1 0 100.022 -1275.07 0 
598.813 -1275.06 0 1142.4 -1275.04 0 1146.96 -1278.01 0 
1627.97 -1291.34 0 1644.86 -1275.03 0 2447.93 -1275.01 0 
-900.617 -1258.1 0 110.929 -1259.99 0 112.317 -1258.07 0 
589.492 -1258.06 0 591.942 -1263.25 0 1116.32 -1258.04 0 
1662.47 -1258.03 0 2447.95 -1258.01 0 -912.517 -1241.1 0 
124.612 -1241.07 0 582.637 -1241.06 0 1090.24 -1241.04 0 
1109.96 -1253.89 0 1664.97 -1256.37 0 1689.66 -1241.03 0 
2447.96 -1241.01 0 -924.416 -1224.1 0 136.907 -1224.07 0 
578.594 -1224.06 0 1064.16 -1224.04 0 1072.96 -1229.78 0 
1701.97 -1233.42 0 1710.33 -1224.03 0 2444.75 -1224.01 0 
-925.097 -1223.12 0 -936.316 -1207.1 0 144.439 -1207.07 0 
574.552 -1207.06 0 1038.08 -1207.04 0 1722.95 -1207.02 0 
2441.99 -1210.79 0 2441.22 -1207.01 0 -948.216 -1190.1 0 
147.29 -1190.07 0 570.51 -1190.05 0 1012 -1190.04 0 
1035.96 -1205.66 0 1733.82 -1190.02 0 2439.53 -1190 0 
-960.116 -1173.09 0 147.934 -1185.15 0 149.178 -1173.06 0 
566.467 -1173.05 0 991.451 -1173.04 0 998.957 -1181.54 0 
1738.98 -1181.95 0 1745.15 -1173.02 0 2439.35 -1173 0 
-962.095 -1170.27 0 -972.015 -1156.09 0 150.929 -1156.06 0 
562.425 -1156.05 0 976.38 -1156.04 0 1756.58 -1156.02 0 
2439.1 -1156 0 -983.915 -1139.09 0 152.679 -1139.06 0 
558.383 -1139.05 0 961.413 -1139.04 0 961.959 -1139.86 0 
1767.6 -1139.02 0 2438.85 -1139 0 -996.266 -1122.09 0 
154.429 -1122.06 0 554.335 -1122.05 0 554.949 -1124.61 0 
950.451 -1122.04 0 1775.98 -1125.66 0 1778.46 -1122.02 0 
2438.63 -1122 0 -999.093 -1119.61 0 -1015.67 -1105.09 0 
156.18 -1105.06 0 550.264 -1105.05 0 940.36 -1105.04 0 
1790.04 -1105.02 0 2438.46 -1105 0 -1026.82 -1088.09 0 
157.93 -1088.06 0 546.197 -1088.05 0 930.883 -1088.04 0 
1801.74 -1088.02 0 2438.28 -1088 0 -1031.52 -1071.09 0 
159.736 -1071.06 0 542.134 -1071.05 0 921.406 -1071.04 0 
924.962 -1077.42 0 1812.99 -1071.3 0 1813.18 -1071.01 0 
2438.1 -1071 0 -1034.14 -1054.09 0 166.453 -1054.06 0 
538.076 -1054.05 0 907.552 -1054.04 0 1824.76 -1054.01 0 
2437.92 -1054 0 -1036.09 -1039.75 0 -1036.52 -1037.09 0 
173.232 -1037.06 0 534.022 -1037.05 0 892.438 -1037.04 0 
1836.33 -1037.01 0 2437.75 -1037 0 -1039.1 -1020.09 0 
180.012 -1020.06 0 529.973 -1020.05 0 877.323 -1020.04 0 
887.963 -1032 0 1845.42 -1020.01 0 2437.57 -1019.99 0 
-1041.47 -1003.09 0 184.946 -1007.68 0 186.792 -1003.05 0 
525.927 -1003.04 0 862.209 -1003.04 0 1849.99 -1010.09 0 
1852.67 -1003.01 0 2437.39 -1002.99 0 -1043.64 -986.086 0 
193.572 -986.053 0 521.887 -986.044 0 847.094 -986.035 0 
850.965 -990.389 0 1859.09 -986.008 0 2437.21 -985.992 0 
-1045.71 -969.085 0 200.351 -969.052 0 518.004 -969.043 0 
831.98 -969.034 0 1865.51 -969.007 0 2437.04 -968.991 0 
-1048.03 -952.084 0 207.131 -952.05 0 512.939 -952.042 0 
517.957 -968.897 0 816.865 -952.034 0 1873.39 -952.005 0 
2436.86 -951.99 0 -1050.34 -935.083 0 213.911 -935.049 0 
507.848 -935.041 0 802.742 -935.033 0 813.966 -948.773 0 
1881.93 -935.004 0 2434.96 -934.989 0 -1052.66 -918.082 0 
217.456 -918.048 0 502.623 -918.04 0 789.938 -918.033 0 
1887 -924.927 0 1890.48 -918.003 0 2432.53 -917.988 0 
-1054.97 -901.081 0 217.463 -901.047 0 497.087 -901.04 0 
778.195 -901.032 0 1899.02 -901.002 0 2429.96 -900.987 0 
-1057.29 -884.081 0 217.469 -884.046 0 491.553 -884.039 0 
768.036 -884.031 0 776.968 -899.17 0 1907.56 -884 0 
2427.39 -883.986 0 -1059.6 -867.08 0 217.473 -867.045 0 
486.019 -867.038 0 758.006 -867.031 0 1916.1 -866.999 0 
2424.82 -866.985 0 -1061.92 -850.079 0 217.221 -850.044 0 
[...]
POINT_DATA 7367
SCALARS Pressure double
LOOKUP_TABLE default
3.0932710339 3.0932710339 3.0932710339 3.0932710339 3.0932710339 3.0932710339 3.0932710339 3.0932710339 3.0932710339 
3.0932710339 3.0932710339 3.0932710339 3.0932710339 3.0932710339 3.0932710339 3.0932710339 3.0932710339 3.0932710339 
3.0932710339 3.0932710339 3.0932710339 3.0932710339 3.0932710339 3.0932710339 3.0932710339 3.0932710339 3.0932710339 
3.0932710339 3.0932710339 3.0932710339 3.0932710339 3.0932710339 3.0932710339 3.0932710339 3.0932710339 3.0932710339 
3.0932710339 3.0932710339 3.0932710339 3.0932710339 3.0932710339 3.0932710339 3.0932710339 3.0932710339 3.0932710339 
3.0932710339 3.0932710339 3.0932710339 3.0932710339 3.0932710339 3.0932710339 3.0932710339 3.0932710339 3.0932710339 
3.0932710339 3.0932710339 3.0932710339 3.0932710339 3.0932710339 3.0932710339 3.0932710339 3.0932710339 3.0932710339 
3.0932710339 3.0932710339 3.0932710339 3.0932710339 3.0932710339 3.0932710339 3.0932710339 3.0932710339 3.0932710339 
3.0932710339 3.0932710339 3.0932710339 3.0932710339 3.0932710339 3.0932710339 3.0932710339 3.0932710339 3.0932710339 
3.0932710339 3.0932710339 3.0932710339 3.0932710339 3.0932710339 3.0932710339 3.0932710339 3.0932710339 3.0932710339 
3.0932710339 3.0932710339 3.0932710339 3.0932710339 3.0932710339 3.0932710339 3.0932710339 3.0932710339 3.0932710339 
3.0932710339 3.0932710339 3.0932710339 3.0932710339 3.0932710339 3.0932710339 3.0932710339 3.0932710339 3.0932710339 
3.0932710339 3.0932710339 3.0932710339 3.0932710339 3.0932710339 3.0932710339 3.0932710339 3.0932710339 3.0932710339 
3.0932710339 3.0932710339 3.0932710339 3.0932710339 3.0932710339 3.0932710339 3.0932710339 3.0932710339 3.0932710339 
3.0932710339 3.0932710339 3.0932710339 3.0932710339 3.0932710339 3.0932710339 3.0932710339 3.0932710339 3.0932710339 
3.0932710339 3.0932710339 3.0932710339 3.0932710339 3.0932710339 3.0932710339 3.0932710339 3.0932710339 3.0932710339 
3.0932710339 3.0932710339 3.0932710339 3.0932710339 3.0932710339 3.0932710339 3.0932710339 3.0932710339 3.0932710339 
3.0932710339 3.0932710339 3.0932710339 3.0932710339 3.0932710339 3.0932710339 3.0932710339 3.0932710339 3.0932710339 
3.0932710339 3.0932710339 3.0932710339 3.0932710339 3.0932710339 3.0932710339 3.0932710339 3.0932710339 3.0932710339 
3.0932710339 3.0932710339 3.0932710339 3.0932710339 3.0932710339 3.0932710339 3.0932710339 3.0932710339 3.0932710339 
3.0932710339 3.0932710339 3.0932710339 3.0932710339 3.0932710339 3.0932710339 3.0932710339 3.0932710339 3.0932710339 
3.0932710339 3.0932710339 3.0932710339 3.0932710339 3.0932710339 3.0932710339 3.0932710339 3.0932710339 3.0786768432 
3.0786768432 3.0786768432 3.0786768432 3.0932710339 3.0932710339 3.0786768432 3.0786768432 3.0786768432 3.0932710339 
3.0932710339 3.0786768432 3.0786768432 3.0786768432 3.0786768432 3.0786768432 3.0932710339 3.0932710339 3.0786768432 
3.0786768432 3.0786768432 3.0786768432 3.0932710339 3.0932710339 3.0786768432 3.0786768432 3.0786768432 3.0786768432 
3.0932710339 3.0932710339 3.0786768432 3.0786768432 3.0786768432 3.0786768432 3.0786768432 3.0932710339 3.0932710339 
3.0786768432 3.0786768432 3.0786768432 3.0786768432 3.0932710339 3.0932710339 3.0932710339 3.0786768432 3.0786768432 
3.0786768432 3.0786768432 3.0786768432 3.0932710339 3.0932710339 3.0786768432 3.0786768432 3.0786768432 3.0932710339 
3.0932710339 3.0786768432 3.0786768432 3.0786768432 3.0932710339 3.0932710339 3.0786768432 3.0786768432 3.0932710339 
3.0932710339 3.0786768432 3.0786768432 3.0786768432 3.0932710339 3.0932710339 3.0786768432 3.0786768432 3.0786768432 
3.0932710339 3.0932710339 3.0786768432 3.0786768432 3.0932710339 3.0932710339 3.0786768432 3.0786768432 3.0786768432 
3.0932710339 3.1078652246 3.1078652246 3.1078652246 3.1078652246 3.1078652246 3.1078652246 3.1078652246 3.0932710339 
3.0932710339 3.0786768432 3.0786768432 3.0786768432 3.0932710339 3.1078652246 3.1078652246 3.1078652246 3.1078652246 
3.0932710339 3.0786768432 3.0786768432 3.0932710339 3.0932710339 3.1078652246 3.1078652246 3.1078652246 3.1078652246 
3.0932710339 3.0786768432 3.0786768432 3.0786768432 3.0932710339 3.1078652246 3.1078652246 3.1078652246 3.1078652246 
3.0932710339 3.0786768432 3.0786768432 3.0786768432 3.0932710339 3.1078652246 3.1078652246 3.0932710339 3.0786768432 
3.0786768432 3.0932710339 3.1078652246 3.1078652246 3.1078652246 3.0932710339 3.0786768432 3.0786768432 3.0786768432 
3.0932710339 3.1078652246 3.1078652246 3.1078652246 3.1078652246 3.0932710339 3.0786768432 3.0786768432 3.0786768432 
3.0932710339 3.0932710339 3.1078652246 3.1078652246 3.0932710339 3.0786768432 3.0786768432 3.0932710339 3.1078652246 
3.1078652246 3.1078652246 3.1078652246 3.0932710339 3.0786768432 3.0786768432 3.0932710339 3.1078652246 3.1078652246 
3.1078652246 3.1078652246 3.0932710339 3.0786768432 3.0786768432 3.0786768432 3.0932710339 3.1078652246 3.1078652246 
3.0932710339 3.0932710339 3.0786768432 3.0786768432 3.0932710339 3.1078652246 3.1078652246 3.1078652246 3.0932710339 
3.0786768432 3.0786768432 3.0786768432 3.0932710339 3.1078652246 3.1078652246 3.1078652246 3.1078652246 3.0932710339 
3.0786768432 3.0786768432 3.0786768432 3.0932710339 3.1078652246 3.1078652246 3.0932710339 3.0786768432 3.0786768432 
3.0932710339 3.1078652246 3.1078652246 3.1078652246 3.0932710339 3.0786768432 3.0786768432 3.0932710339 3.0932710339 
3.1078652246 3.1078652246 3.1078652246 3.0932710339 3.0786768432 3.0786768432 3.0786768432 3.0932710339 3.1078652246 
3.1078652246 3.0932710339 3.0786768432 3.0786768432 3.0932710339 3.1078652246 3.1078652246 3.0932710339 3.0786768432 
3.0786768432 3.0932710339 3.1078652246 3.1078652246 3.1078652246 3.1078652246 3.0932710339 3.0786768432 3.0786768432 
3.0932710339 3.1078652246 3.1078652246 3.0932710339 3.0786768432 3.0786768432 3.0786768432 3.0932710339 3.1078652246 
3.1078652246 3.0932710339 3.0786768432 3.0786768432 3.0932710339 3.1078652246 3.1078652246 3.1078652246 3.0932710339 
3.0786768432 3.0786768432 3.0786768432 3.0932710339 3.1078652246 3.1078652246 3.1078652246 3.0932710339 3.0786768432 
3.0786768432 3.0932710339 3.1078652246 3.1078652246 3.1078652246 3.0932710339 3.0786768432 3.0786768432 3.0932710339 
3.1078652246 3.1078652246 3.0932710339 3.0786768432 3.0786768432 3.0932710339 3.0932710339 3.1078652246 3.1078652246 
3.0932710339 3.0786768432 3.0786768432 3.0932710339 3.1078652246 3.1078652246 3.1078652246 3.0932710339 3.0786768432 
3.0786768432 3.0932710339 3.1078652246 3.1078652246 3.1078652246 3.0932710339 3.0786768432 3.0786768432 3.0932710339 
3.1078652246 3.1078652246 3.0932710339 3.0786768432 3.0786768432 3.0932710339 3.1078652246 3.1078652246 3.1078652246 
3.0932710339 3.0786768432 3.0786768432 3.0932710339 3.1078652246 3.1078652246 3.0932710339 3.0786768432 3.0786768432 
3.0932710339 3.0932710339 3.1078652246 3.1078652246 3.1078652246 3.0932710339 3.0786768432 3.0786768432 3.0932710339 
3.1078652246 3.1078652246 3.1078652246 3.0932710339 3.0786768432 3.0786768432 3.0932710339 3.1078652246 3.1078652246 
3.0932710339 3.0786768432 3.0786768432 3.0786768432 3.0786768432 3.0786768432 3.0786768432 3.0786768432 3.0932710339 
3.1078652246 3.1078652246 3.0932710339 3.0786768432 3.0786768432 3.0786768432 3.0786768432 3.0786768432 3.0786768432 
3.0932710339 3.1078652246 3.1224594153 3.1224594153 3.1224594153 3.1224594153 3.1078652246 3.0932710339 3.0786768432 
3.0786768432 3.0786768432 3.0786768432 3.0786768432 3.0786768432 3.0786768432 3.0932710339 3.1078652246 3.1078652246 
3.1224594153 3.1224594153 3.1224594153 3.1224594153 3.1224594153 3.1224594153 3.1078652246 3.0932710339 3.0786768432 
3.0786768432 3.0786768432 3.0786768432 3.0786768432 3.0640826525 3.0640826525 3.0640826525 3.0786768432 3.0932710339 
3.1078652246 3.1224594153 3.1224594153 3.1224594153 3.1224594153 3.1224594153 3.1078652246 3.1078652246 3.0932710339 
3.0786768432 3.0786768432 3.0786768432 3.0786768432 3.0786768432 3.0786768432 3.0640826525 3.0640826525 3.0640826525 
3.0640826525 3.0640826525 3.0640826525 3.0640826525 3.0640826525 3.0786768432 3.0932710339 3.1078652246 3.1224594153 
3.1224594153 3.1224594153 3.1078652246 3.0932710339 3.0786768432 3.0786768432 3.0786768432 3.0786768432 3.0786768432 
3.0640826525 3.0640826525 3.0640826525 3.0786768432 3.0932710339 3.1078652246 3.1078652246 3.1224594153 3.1224594153 
3.1224594153 3.1224594153 3.1078652246 3.0932710339 3.0786768432 3.0786768432 3.0786768432 3.0786768432 3.0640826525 
3.0640826525 3.0786768432 3.0932710339 3.0932710339 3.1078652246 3.1224594153 3.1224594153 3.1078652246 3.0932710339 
3.0786768432 3.0786768432 3.0786768432 3.0640826525 3.0640826525 3.0640826525 3.0640826525 3.0786768432 3.0932710339 
3.1078652246 3.1224594153 3.1224594153 3.1224594153 3.1224594153 3.1078652246 3.0932710339 3.0786768432 3.0786768432 
3.0786768432 3.0786768432 3.0640826525 3.0640826525 3.0786768432 3.0932710339 3.1078652246 3.1224594153 3.1224594153 
3.1224594153 3.1224594153 3.1078652246 3.0932710339 3.0786768432 3.0786768432 3.0786768432 3.0786768432 3.0786768432 
3.0640826525 3.0640826525 3.0640826525 3.0640826525 3.0786768432 3.0932710339 3.1078652246 3.1078652246 3.1224594153 
3.1224594153 3.1078652246 3.1078652246 3.0932710339 3.0786768432 3.0786768432 3.0786768432 3.0786768432 3.0640826525 
3.0640826525 3.0786768432 3.0932710339 3.1078652246 3.1224594153 3.1224594153 3.1224594153 3.1224594153 3.1078652246 
3.0932710339 3.0786768432 3.0786768432 3.0786768432 3.0640826525 3.0640826525 3.0640826525 3.0640826525 3.0786768432 
3.0932710339 3.1078652246 3.1224594153 3.1224594153 3.1078652246 3.0932710339 3.0786768432 3.0786768432 3.0786768432 
3.0786768432 3.0640826525 3.0640826525 3.0786768432 3.0932710339 3.1078652246 3.1224594153 3.1224594153 3.1224594153 
3.1078652246 3.0932710339 3.0786768432 3.0786768432 3.0786768432 3.0786768432 3.0640826525 3.0640826525 3.0640826525 
3.0640826525 3.0786768432 3.0932710339 3.1078652246 3.1224594153 3.1224594153 3.1224594153 3.1078652246 3.0932710339 
3.0786768432 3.0786768432 3.0786768432 3.0786768432 3.0640826525 3.0640826525 3.0786768432 3.0932710339 3.0932710339 
3.1078652246 3.1078652246 3.1224594153 3.1224594153 3.1224594153 3.1078652246 3.0932710339 3.0786768432 3.0786768432 
3.0786768432 3.0640826525 3.0640826525 3.0786768432 3.0932710339 3.1078652246 3.1224594153 3.1224594153 3.1078652246 
3.0932710339 3.0786768432 3.0786768432 3.0786768432 3.0640826525 3.0640826525 3.0786768432 3.0932710339 3.1078652246 
3.1224594153 3.1224594153 3.1224594153 3.1078652246 3.0932710339 3.0786768432 3.0786768432 3.0786768432 3.0786768432 
3.0640826525 3.0640826525 3.0786768432 3.0932710339 3.1078652246 3.1078652246 3.1224594153 3.1224594153 3.1224594153 
3.1078652246 3.0932710339 3.0786768432 3.0786768432 3.0786768432 3.0640826525 3.0640826525 3.0640826525 3.0786768432 
3.0932710339 3.1078652246 3.1224594153 3.1224594153 3.1224594153 3.1078652246 3.1078652246 3.0932710339 3.0786768432 
3.0786768432 3.0786768432 3.0786768432 3.0786768432 3.0640826525 3.0640826525 3.0640826525 3.0786768432 3.0932710339 
3.1078652246 3.1224594153 3.1224594153 3.1078652246 3.0932710339 3.0786768432 3.0786768432 3.0786768432 3.0640826525 
3.0640826525 3.0786768432 3.0932710339 3.1078652246 3.1078652246 3.1224594153 3.1224594153 3.1224594153 3.1078652246 
3.0932710339 3.0786768432 3.0786768432 3.0786768432 3.0640826525 3.0640826525 3.0786768432 3.0932710339 3.1078652246 
3.1224594153 3.1224594153 3.1078652246 3.0932710339 3.0786768432 3.0786768432 3.0786768432 3.0640826525 3.0494884618 
3.0494884618 3.0494884618 3.0494884618 3.0494884618 3.0640826525 3.0786768432 3.0932710339 3.0932710339 3.1078652246 
3.1224594153 3.1224594153 3.1224594153 3.1078652246 3.0932710339 3.0786768432 3.0786768432 3.0786768432 3.0640826525 
3.0640826525 3.0494884618 3.0494884618 3.0494884618 3.0494884618 3.0640826525 3.0786768432 3.0932710339 3.1078652246 
3.1224594153 3.1224594153 3.137053606 3.137053606 3.137053606 3.137053606 3.1224594153 3.1078652246 3.0932710339 
3.0786768432 3.0786768432 3.0786768432 3.0786768432 3.0640826525 3.0494884618 3.0494884618 3.0494884618 3.0640826525 
3.0786768432 3.0932710339 3.1078652246 3.1078652246 3.1224594153 3.137053606 3.137053606 3.137053606 3.137053606 
3.1224594153 3.1078652246 3.0932710339 3.0786768432 3.0786768432 3.0786768432 3.0786768432 3.0640826525 3.0494884618 
3.0494884618 3.0494884618 3.0640826525 3.0786768432 3.0932710339 3.1078652246 3.1224594153 3.1224594153 3.137053606 
3.137053606 3.137053606 3.137053606 3.1224594153 3.1078652246 3.0932710339 3.0786768432 3.0786768432 3.0786768432 
3.0640826525 3.0494884618 3.0494884618 3.0494884618 3.0640826525 3.0786768432 3.0932710339 3.0932710339 3.1078652246 
3.1224594153 3.137053606 3.137053606 3.1224594153 3.1078652246 3.0932710339 3.0932710339 3.0786768432 3.0786768432 
3.0786768432 3.0640826525 3.0494884618 3.0494884618 3.0494884618 3.0640826525 3.0786768432 3.0932710339 3.1078652246 
3.1078652246 3.1224594153 3.137053606 3.137053606 3.137053606 3.137053606 3.1224594153 3.1078652246 3.0932710339 
3.0786768432 3.0786768432 3.0786768432 3.0786768432 3.0640826525 3.0494884618 3.0494884618 3.0494884618 3.0640826525 
3.0786768432 3.0932710339 3.1078652246 3.1224594153 3.137053606 3.137053606 3.1224594153 3.1078652246 3.0932710339 
3.0786768432 3.0786768432 3.0786768432 3.0786768432 3.0640826525 3.0494884618 3.0494884618 3.0640826525 3.0786768432 
3.0932710339 3.1078652246 3.1224594153 3.1224594153 3.137053606 3.137053606 3.1224594153 3.1078652246 3.0932710339 
3.0786768432 3.0786768432 3.0786768432 3.0786768432 3.0786768432 3.0640826525 3.0494884618 3.0494884618 3.0640826525 
3.0786768432 3.0932710339 3.1078652246 3.1224594153 3.137053606 3.137053606 3.1224594153 3.1078652246 3.0932710339 
3.0786768432 3.0786768432 3.0786768432 3.0786768432 3.0640826525 3.0640826525 3.0494884618 3.0494884618 3.0494884618 
3.0640826525 3.0786768432 3.0786768432 3.0932710339 3.1078652246 3.1078652246 3.1224594153 3.137053606 3.137053606 
3.1224594153 3.1078652246 3.0932710339 3.0786768432 3.0786768432 3.0786768432 3.0786768432 3.0640826525 3.0494884618 
3.0348942711 3.0348942711 3.0348942711 3.0348942711 3.0494884618 3.0640826525 3.0786768432 3.0932710339 3.0932710339 
3.1078652246 3.1224594153 3.137053606 3.137053606 3.137053606 3.1224594153 3.1078652246 3.0932710339 3.0786768432 
3.0640826525 3.0640826525 3.0640826525 3.0640826525 3.0640826525 3.0786768432 3.0786768432 3.0786768432 3.0786768432 
3.0786768432 3.0640826525 3.0494884618 3.0348942711 3.0348942711 3.0348942711 3.0348942711 3.0494884618 3.0494884618 
3.0640826525 3.0786768432 3.0932710339 3.1078652246 3.1224594153 3.1224594153 3.137053606 3.137053606 3.137053606 
3.1224594153 3.1078652246 3.0932710339 3.0786768432 3.0786768432 3.0640826525 3.0640826525 3.0640826525 3.0640826525 
3.0786768432 3.0786768432 3.0786768432 3.0786768432 3.0640826525 3.0494884618 3.0348942711 3.0348942711 3.0348942711 
3.0494884618 3.0640826525 3.0786768432 3.0932710339 3.1078652246 3.1224594153 3.137053606 3.137053606 3.137053606 
3.1224594153 3.1078652246 3.0932710339 3.0786768432 3.0640826525 3.0640826525 3.0640826525 3.0786768432 3.0786768432 
3.0786768432 3.0786768432 3.0640826525 3.0494884618 3.0348942711 3.0348942711 3.0348942711 3.0494884618 3.0640826525 
3.0786768432 3.0932710339 3.1078652246 3.1224594153 3.137053606 3.137053606 3.137053606 3.1224594153 3.1078652246 
3.1078652246 3.0932710339 3.0786768432 3.0640826525 3.0640826525 3.0640826525 3.0640826525 3.0786768432 3.0786768432 
3.0786768432 3.0640826525 3.0494884618 3.0348942711 3.0348942711 3.0494884618 3.0640826525 3.0786768432 3.0932710339 
3.1078652246 3.1078652246 3.1224594153 3.137053606 3.137053606 3.1224594153 3.1078652246 3.0932710339 3.0786768432 
3.0640826525 3.0640826525 3.0786768432 3.0786768432 3.0640826525 3.0494884618 3.0494884618 3.0348942711 3.0348942711 
3.0203000804 3.0203000804 3.0203000804 3.0348942711 3.0348942711 3.0494884618 3.0640826525 3.0786768432 3.0786768432 
3.0932710339 3.1078652246 3.1224594153 2.9473291268 2.9473291268 2.9619233175 2.9619233175 2.9765175082 2.9765175082 
2.991111699 2.991111699 3.0057058897 3.0057058897 3.0203000804 3.0203000804 3.0348942711 3.0348942711 3.0494884618 
3.0494884618 3.0640826525 3.0640826525 3.0786768432 3.0786768432 3.0932710339 3.0932710339 3.1078652246 3.1078652246 
3.1224594153 3.1224594153 2.9473291268 2.9619233175 2.9765175082 2.991111699 3.0057058897 3.0203000804 3.0348942711 
3.0494884618 3.0640826525 3.0786768432 3.0932710339 3.1078652246 3.1224594153 2.9473291268 2.9619233175 2.9765175082 
2.991111699 3.0057058897 3.0203000804 3.0348942711 3.0494884618 3.0640826525 3.0786768432 3.0932710339 3.1078652246 
3.1224594153 3.137053606 2.9473291268 2.9619233175 2.9765175082 2.991111699 3.0057058897 3.0203000804 3.0348942711 
3.0494884618 3.0640826525 3.0786768432 3.0932710339 3.1078652246 3.1224594153 3.137053606 2.9473291268 2.9619233175 
2.9765175082 2.991111699 3.0057058897 3.0203000804 3.0348942711 3.0494884618 3.0640826525 3.0786768432 3.0932710339 
3.1078652246 3.1224594153 3.137053606 2.9473291268 2.9619233175 2.9765175082 2.991111699 3.0057058897 3.0203000804 
3.0348942711 3.0494884618 3.0640826525 3.0786768432 3.0932710339 3.1078652246 3.1224594153 3.137053606 2.9473291268 
2.9619233175 2.9765175082 2.991111699 3.0057058897 3.0203000804 3.0348942711 3.0494884618 3.0640826525 3.0786768432 
3.0932710339 3.1078652246 3.1224594153 3.137053606 2.9473291268 2.9619233175 2.9765175082 2.991111699 3.0057058897 
3.0203000804 3.0348942711 3.0494884618 3.0640826525 3.0786768432 3.0932710339 3.1078652246 3.1224594153 3.137053606 
2.9473291268 2.9619233175 2.9765175082 2.991111699 3.0057058897 3.0203000804 3.0348942711 3.0494884618 3.0640826525 
3.0786768432 3.0932710339 3.1078652246 3.1224594153 3.137053606 2.9473291268 2.9619233175 2.9765175082 2.991111699 
3.0057058897 3.0203000804 3.0348942711 3.0494884618 3.0640826525 3.0786768432 3.0932710339 3.1078652246 3.1224594153 
3.137053606 3.137053606 3.1224594153 3.1078652246 3.0932710339 3.0932710339 3.0786768432 3.0640826525 3.0640826525 
3.0786768432 3.0786768432 3.0786768432 3.0640826525 3.0494884618 3.0348942711 3.0203000804 3.0203000804 3.0203000804 
3.0203000804 3.0348942711 3.0494884618 3.0640826525 3.0786768432 3.0932710339 3.1078652246 2.9473291268 2.9473291268 
2.9619233175 2.9619233175 2.9765175082 2.9765175082 2.991111699 2.991111699 3.0057058897 3.0057058897 3.0203000804 
3.0203000804 3.0348942711 3.0348942711 3.0494884618 3.0494884618 3.0640826525 3.0640826525 3.0786768432 3.0786768432 
3.0932710339 3.0932710339 3.1078652246 3.1078652246 2.9473291268 2.9619233175 2.9765175082 2.991111699 3.0057058897 
3.0203000804 3.0348942711 3.0494884618 3.0640826525 3.0786768432 3.0932710339 3.1078652246 2.9473291268 2.9619233175 
2.9765175082 2.991111699 3.0057058897 3.0203000804 3.0348942711 3.0494884618 3.0640826525 3.0786768432 3.0932710339 
3.1078652246 2.9473291268 2.9619233175 2.9765175082 2.991111699 3.0057058897 3.0203000804 3.0348942711 3.0494884618 
3.0640826525 3.0786768432 3.0932710339 3.1078652246 3.1224594153 2.9473291268 2.9619233175 2.9765175082 2.991111699 
3.0057058897 3.0203000804 3.0348942711 3.0494884618 3.0640826525 3.0786768432 3.0932710339 3.1078652246 3.1224594153 
2.9473291268 2.9619233175 2.9765175082 2.991111699 3.0057058897 3.0203000804 3.0348942711 3.0494884618 3.0640826525 
3.0786768432 3.0932710339 3.1078652246 3.1224594153 2.9473291268 2.9619233175 2.9765175082 2.991111699 3.0057058897 
3.0203000804 3.0348942711 3.0494884618 3.0640826525 3.0786768432 3.0932710339 3.1078652246 3.1224594153 2.9473291268 
2.9619233175 2.9765175082 2.991111699 3.0057058897 3.0203000804 3.0348942711 3.0494884618 3.0640826525 3.0786768432 
3.0932710339 3.1078652246 3.1224594153 2.9473291268 2.9619233175 2.9765175082 2.991111699 3.0057058897 3.0203000804 
3.0348942711 3.0494884618 3.0640826525 3.0786768432 3.0932710339 3.1078652246 3.1224594153 3.137053606 2.9473291268 