# vtk DataFile Version 4.2
vtk output
ASCII
DATASET UNSTRUCTURED_GRID
POINTS 1740 double
2144.07 -94.44003 0 2911 0 0 16.54298 -37.82236 0 
5.09149 -21.30132 0 1.27433 -10.75385 0 0 0 0 
2.54575 15.14293 0 6.36291 23.76126 0 14.00014 34.89063 0 
30.50239 50.70793 0 33.39435 -52.93479 0 2050.91 -103.7862 0 
60.1465 -69.72165 0 88.83633 -83.2817 0 118.7656 -94.71113 0 
153.4168 -105.7022 0 199.5806 -117.771 0 261.4466 -130.7139 0 
345.846 -144.1892 0 460.3522 -157.0592 0 608.4185 -167.1903 0 
783.2313 -172.4016 0 941.0559 -172.4533 0 1063.409 -170.1096 0 
1164.153 -166.8746 0 1263.449 -162.682 0 1375.468 -156.8941 0 
1513.293 -148.414 0 1665.281 -137.5317 0 1791.864 -127.3721 0 
2195.451 -89.09491 0 2273.924 -80.67077 0 2383.731 -68.3513 0 
2517.64 -52.47337 0 2649.227 -35.9232 0 2740.773 -23.82991 0 
2804.387 -15.13419 0 2848.802 -8.916218 0 2881.944 -4.196067 0 
56.61447 67.79801 0 84.09687 81.25172 0 112.4783 92.48395 0 
142.1748 102.3504 0 174.8563 111.6168 0 213.124 120.8806 0 
260.3759 130.5151 0 324.6539 141.1779 0 418.1422 152.9178 0 
535.6656 162.9871 0 690.9154 170.4255 0 902.6513 172.7852 0 
1100.32 169.0517 0 1270.99 162.3262 0 1462.794 151.6837 0 
1631.287 140.0952 0 1747.993 131 0 1922.788 115.9027 0 
2069.56 101.951 0 2128.804 96.0021 0 2297.147 78.11721 0 
2414.379 64.80104 0 2554.023 47.99319 0 2673.693 32.73885 0 
2757.97 21.50315 0 2814.297 13.7575 0 2852.02 8.460961 0 
2882.272 4.148909 0 1791.052 127.4402 0 1366.894 157.3738 0 
1444.38 -152.8302 0 1547.039 146.1296 0 1589.287 -143.1614 0 
1878.731 119.8675 0 1997.072 108.9828 0 1185.654 166.0472 0 
1882.536 -119.5292 0 1971.323 -111.4145 0 1684.777 136.0292 0 
2099.317 -98.9855 0 2234.809 84.9091 0 2181.695 90.53914 0 
1728.573 -132.5703 0 1718.815 133.3509 0 1834.825 123.7132 0 
1960.305 112.4444 0 2033.69 105.4648 0 2099.184 98.99892 0 
2214.291 -65.70693691 396.8421 2955.512 20.867683671 396.8421 158.0786 -15.691371658 396.8421 
147.0109 0.17401693924 396.8421 143.3217 10.332493015 396.8421 142.09 20.712119977 396.8421 
144.5505 35.365292184 396.8421 148.2398 43.725076813 396.8421 155.621 54.543452082 396.8421 
171.5701 69.965473253 396.8421 174.3652 -30.151099327 396.8421 2124.254 -74.393205716 396.8421 
200.2206 -46.148600617 396.8421 227.9488 -59.016855147 396.8421 256.8748 -69.821611364 396.8421 
290.3647 -80.171872119 396.8421 334.981 -91.484974043 396.8421 394.7733 -103.5442726 396.8421 
476.3434 -115.99218159 396.8421 587.0114 -127.71922774 396.8421 730.1145 -136.70837814 396.8421 
899.0676 -140.96725783 396.8421 1051.602 -140.47172317 396.8421 1169.853 -137.88548963 396.8421 
1267.221 -134.56090461 396.8421 1363.188 -130.37215521 396.8421 1471.452 -124.69323297 396.8421 
1604.657 -116.4933395 396.8421 1751.55 -106.09904915 396.8421 1873.891 -96.484315816 396.8421 
2263.949 -60.753165843 396.8421 2339.792 -52.964168845 396.8421 2445.918 -41.609366888 396.8421 
2575.338 -27.027750617 396.8421 2702.515 -11.880353879 396.8421 2790.992 -0.8388931065 396.8421 
2852.473 7.0889677222 396.8421 2895.4 12.752711263 396.8421 2927.431 17.049583941 396.8421 
196.807 86.694854663 396.8421 223.3682 99.917493981 396.8421 250.7983 110.99619663 396.8421 
279.4994 120.760403 396.8421 311.0855 129.96192774 396.8421 348.0705 139.19508931 396.8421 
393.7383 148.84062039 396.8421 455.8617 159.57938907 396.8421 546.2162 171.5128449 396.8421 
659.8003 181.90994879 396.8421 809.846 189.85435736 396.8421 1014.485 192.93862686 396.8421 
1205.528 189.84605508 396.8421 1370.477 183.61028856 396.8421 1555.851 173.42235218 396.8421 
1718.696 162.13488478 396.8421 1831.49 153.18967833 396.8421 2000.426 138.22234945 396.8421 
2142.278 124.28956764 396.8421 2199.537 118.32476967 396.8421 2362.236 100.32043217 396.8421 
2475.539 86.856630973 396.8421 2610.501 69.805047614 396.8421 2726.16 54.284469312 396.8421 
2807.613 42.830386287 396.8421 2862.05 34.924902 396.8421 2898.509 29.515201296 396.8421 
2927.749 25.10889942 396.8421 1873.106 149.67259125 396.8421 1463.165 178.89908882 396.8421 
1538.054 -120.74975991 396.8421 1637.272 168.03088956 396.8421 1678.104 -111.46172939 396.8421 
1957.846 142.16530638 396.8421 2072.22 131.32248666 396.8421 1288 187.09531953 396.8421 
1961.524 -89.107280258 396.8421 2047.334 -81.508780229 396.8421 1770.393 158.14383336 396.8421 
2171.038 -69.927450517 396.8421 2301.989 107.16932924 396.8421 2250.655 112.83610566 396.8421 
1812.721 -101.39455439 396.8421 1803.29 155.50768421 396.8421 1915.411 145.98181121 396.8421 
2036.686 134.77672415 396.8421 2107.61 127.80644761 396.8421 2170.909 121.33126878 396.8421 
2284.511 -41.8389608 793.6842 3000.027 38.789525031 793.6842 299.6143 1.9810880716 793.6842 
288.9304 17.213260431 793.6842 285.3691 26.98904545 793.6842 284.1801 36.99478871 793.6842 
286.5551 51.148535652 793.6842 290.1167 59.238786919 793.6842 297.2417 69.725694854 793.6842 
312.6379 84.710737378 793.6842 315.336 -11.860655886 793.6842 2197.597 -50.025739684 793.6842 
340.2947 -27.124514869 793.6842 367.0612 -39.360184203 793.6842 394.9839 -49.600861463 793.6842 
427.3123 -59.3786716 793.6842 470.3812 -70.024065447 793.6842 528.0998 -81.311647112 793.6842 
606.8411 -92.873359687 793.6842 713.6708 -103.62759569 793.6842 851.8104 -111.65745059 793.6842 
1014.904 -115.12544176 793.6842 1162.147 -114.17835758 793.6842 1276.298 -111.39086906 793.6842 
1370.288 -107.98924043 793.6842 1462.927 -103.79768403 793.6842 1567.436 -98.198069178 793.6842 
1696.021 -90.208952996 793.6842 1837.82 -80.184733215 793.6842 1955.917 -70.983591272 793.6842 
2332.447 -37.181258554 793.6842 2405.659 -29.872530507 793.6842 2508.105 -19.246879536 793.6842 
2633.037 -5.6447635697 793.6842 2755.801 8.4427397201 793.6842 2841.209 18.689178526 793.6842 
2900.561 26.036367744 793.6842 2941.997 31.280925819 793.6842 2972.917 35.257527115 793.6842 
336.9995 101.01641048 793.6842 362.6396 113.9443317 793.6842 389.1182 124.80596922 793.6842 
416.8239 134.40376586 793.6842 447.3145 143.47221163 793.6842 483.0167 152.59797452 793.6842 
527.1009 162.16421038 793.6842 587.0697 172.86398673 793.6842 674.2905 184.83982384 793.6842 
783.9349 195.40100986 793.6842 928.7766 203.67894991 793.6842 1126.317 207.33221041 793.6842 
1310.735 204.81668435 793.6842 1469.963 199.07760709 793.6842 1648.908 189.4196784 793.6842 
1806.105 178.55836437 793.6842 1914.987 169.88128074 793.6842 2078.064 155.26902987 793.6842 
2214.996 141.58831944 793.6842 2270.269 135.71298096 793.6842 2427.326 117.9238015 793.6842 
2536.699 104.57593344 793.6842 2666.98 87.627072071 793.6842 2778.628 72.165017261 793.6842 
2857.255 60.736557945 793.6842 2909.806 52.841318386 793.6842 2945.001 47.435528664 793.6842 
2973.224 43.030726108 793.6842 1955.16 166.45693088 793.6842 1559.437 194.63641695 793.6842 
1631.729 -94.344742162 793.6842 1727.505 184.24662082 793.6842 1766.921 -85.344788227 793.6842 
2036.96 159.12790902 793.6842 2147.368 148.50207134 793.6842 1390.347 202.31603922 793.6842 
2040.511 -63.959916462 793.6842 2123.346 -56.75285566 793.6842 1856.009 174.69314518 793.6842 
2242.759 -45.813506876 793.6842 2369.167 124.6997462 793.6842 2319.614 130.29810998 793.6842 
1896.869 -75.67534966 793.6842 1887.765 172.13451528 793.6842 1995.998 162.85700191 793.6842 
2113.066 151.89195187 793.6842 2181.531 145.0475606 793.6842 2242.634 138.67563835 793.6842 
2354.732 -22.633412952 1190.526 3044.539 53.494508804 1190.526 441.15 15.618437997 1190.526 
430.8497 30.236810454 1190.526 427.4164 39.635404119 1190.526 426.2701 49.267648878 1190.526 
428.5601 62.913782285 1190.526 431.9934 70.725081778 1190.526 438.8627 80.863036812 1190.526 
453.7057 95.375236816 1190.526 456.3069 2.3645480183 1190.526 2270.94 -30.436825473 1190.526 
480.3688 -12.213916845 1190.526 506.1737 -23.868345009 1190.526 533.0934 -33.59763881 1190.526 
564.26 -42.862650908 1190.526 605.7815 -52.917283506 1190.526 661.4265 -63.531424708 1190.526 
737.3385 -74.332183097 1190.526 840.33 -84.266168211 1190.526 973.5064 -91.504540858 1190.526 
1130.74 -94.336749452 1190.526 1272.693 -93.037570123 1190.526 1382.742 -90.099718709 1190.526 
1473.356 -86.645810061 1190.526 1562.666 -82.460566491 1190.526 1663.42 -76.932258198 1190.526 
1787.385 -69.118168979 1190.526 1924.09 -59.390999512 1190.526 2037.944 -50.516017145 1190.526 
2400.946 -18.202137328 1190.526 2471.527 -11.259804618 1190.526 2570.292 -1.1884941732 1190.526 
2690.735 11.671495545 1190.526 2809.091 24.958045705 1190.526 2891.43 34.604710023 1190.526 
2948.647 41.514184239 1190.526 2988.597 46.442753237 1190.526 3018.403 50.178069 1190.526 
477.1918 111.20296626 1190.526 501.9109 123.7811583 1190.526 527.4382 134.37074803 1190.526 
554.1485 143.74630781 1190.526 583.5435 152.62215899 1190.526 617.963 161.57354829 1190.526 
660.4633 170.98127971 1190.526 718.2775 181.54057991 1190.526 802.3645 193.42391868 1190.526 
908.0698 204.00037207 1190.526 1047.707 212.4502261 1190.526 1238.151 216.51567412 1190.526 
1415.942 214.49599924 1190.526 1569.449 209.23348101 1190.526 1741.965 200.13794213 1190.526 
1893.514 189.7785422 1190.526 1998.484 181.44784183 1190.526 2155.702 167.34706749 1190.526 
2287.714 154.08576754 1190.526 2341.001 148.37672294 1190.526 2492.415 131.04998546 1190.526 
2597.858 118.01548028 1190.526 2723.46 101.43121762 1190.526 2831.095 86.275222625 1190.526 
2906.899 75.059398324 1190.526 2957.56 67.305319948 1190.526 2991.49 61.993698618 1190.526 
3018.699 57.664254469 1190.526 2037.214 178.15050505 1190.526 1655.708 205.0713264 1190.526 
1725.403 -73.154768106 1190.526 1817.738 195.21565295 1190.526 1855.738 -64.389322157 1190.526 
2116.075 171.07813254 1190.526 2222.516 160.79362874 1190.526 1492.694 212.22966322 1190.526 
2119.498 -43.768118971 1190.526 2199.357 -36.86442406 1190.526 1941.625 186.0723145 1190.526 
2314.479 -26.419397897 1190.526 2436.346 137.65644083 1190.526 2388.573 143.10878723 1190.526 
1981.017 -55.035889794 1190.526 1972.24 183.61466875 1190.526 2076.584 174.67899217 1190.526 
[...]
POINT_DATA 1740
FIELD FieldData 1
Pressure 1 1740 double
3.1026997966 3.0195384059 3.0092359994 2.9863084855 2.9753644917 2.9520729512 2.9680542442 2.9860791186 3.0181160509 
3.0309074303 3.0119755581 3.1062573395 3.0363957293 3.0506086817 3.0671339339 3.0657591458 3.0825301435 3.0872961789 
3.1080338524 3.1121321235 3.1298265362 3.1377292272 3.1388635247 3.1425705201 3.1374929727 3.1333440682 3.1303065896 
3.1266670125 3.1210272434 3.1161960263 3.0999814244 3.0970705366 3.0913690971 3.0839784768 3.0730679402 3.0636574843 
3.053079494 3.045382518 3.0345574191 3.0669313988 3.0798969929 3.0921961071 3.104802955 3.1100501511 3.1186414815 
3.1259540655 3.1343557924 3.1508396536 3.1647345385 3.1809574758 3.1931444748 3.2006007069 3.2076357477 3.2138492932 
3.2182260697 3.2211769884 3.2228266806 3.2225706062 3.1866470967 3.0911279799 3.0853276971 3.0758386034 3.0659027815 
3.0562696263 3.0458927845 3.0390541514 3.0373250522 3.2214983652 3.2110545101 3.1291338114 3.2150428261 3.1239968664 
3.2223609471 3.2236596318 3.2071595412 3.1124869853 3.1091721441 3.2187634254 3.1045740605 3.0947797661 3.0975248559 
3.1186646784 3.2203158727 3.2225773641 3.2239124044 3.223922829 3.2267937031 3.0993145434 3.0248938207 3.026023471 
2.9989039936 3.006152209 2.9840412556 2.9946493323 3.0076668992 3.0344208233 3.0523351354 3.0367577448 3.1033496411 
3.0563881385 3.0690692748 3.0824831255 3.085866249 3.101356016 3.1099178719 3.1229722301 3.1279901461 3.1369813099 
3.1407707842 3.1414662478 3.1413197184 3.136918801 3.1324356792 3.1275853392 3.1233356773 3.1182519936 3.113399133 
3.0969488233 3.0933495494 3.0876622295 3.0804630582 3.0694723302 3.0601465076 3.0501036757 3.0432674459 3.0247092397 
3.0850361849 3.1053657041 3.1167219071 3.1256287389 3.1343897242 3.1395472826 3.1451217978 3.155158091 3.1680164396 
3.1787774685 3.1880879173 3.1967330059 3.203736892 3.2108057534 3.2145839622 3.2183269695 3.2208441496 3.2241567952 
3.2352663193 3.1023387967 3.0944735648 3.0883113383 3.0801591605 3.0698210225 3.0600242883 3.049165199 3.0428074023 
3.0443581703 3.2217368232 3.2132392847 3.1264384707 3.2167759755 3.1206581098 3.2233302001 3.2251331868 3.2088700798 
3.1095281056 3.1061267521 3.2193507389 3.1016851299 3.0957013806 3.0922814708 3.1161735384 3.2201754553 3.2227016486 
3.2251480048 3.2253646642 3.2044493679 3.0968439582 3.0240125754 3.0273118058 3.0008633929 3.0019145333 2.9827565806 
2.9973424699 3.0102620744 3.0380879202 3.0590869605 3.0447166541 3.1008819926 3.0593769148 3.0783789049 3.0962954847 
3.1020712368 3.1149840503 3.1227454627 3.1347300957 3.1393912411 3.1462331663 3.1472771118 3.1453720193 3.1421124772 
3.1361299201 3.1308217508 3.1259447448 3.1207568579 3.1159055135 3.1111000872 3.0946058241 3.0910342513 3.0853550494 
3.0782011704 3.0671994967 3.0576731102 3.0482640524 3.0414857032 3.0266318887 3.0909186079 3.1129560632 3.1311365185 
3.1405208132 3.154639195 3.1616392468 3.1713003571 3.1755416554 3.1845637648 3.1950183309 3.2007025537 3.2072886386 
3.2105205253 3.2179274819 3.2215442378 3.2225715986 3.224485238 3.2270535747 3.1457249304 3.0833009128 3.0898210939 
3.0855491949 3.0781422284 3.0681504591 3.0589803051 3.0486507073 3.0416155258 3.0436455638 3.2252881536 3.2193924073 
3.1239009779 3.2221650618 3.1181933882 3.2263184277 3.2282647176 3.2148116686 3.1073541022 3.1036584618 3.2230059025 
3.0993860945 3.0904643562 3.0877625509 3.1137402796 3.2235489801 3.2263087522 3.2277197363 3.2344582483 3.0696727722 
3.0950877307 3.023254921 3.0284839117 3.0012455058 3.0029636337 2.981082789 2.9921343227 3.0060726138 3.0386993829 
3.0595719311 3.0450955301 3.0988653531 3.0655213129 3.0827765571 3.1017754923 3.1097354734 3.1222233655 3.1297127241 
3.1410666708 3.1471048164 3.1519416562 3.1507049645 3.146903576 3.1422447036 3.1356440947 3.1302208444 3.1248234458 
3.11929187 3.1138640297 3.1091303491 3.0929124634 3.0893759583 3.0840306318 3.0767235046 3.0661831592 3.0564772083 
3.0477489556 3.0408411688 3.0283497644 3.0942499673 3.1178596077 3.1336274053 3.1463794532 3.152740348 3.164715097 
3.1778850614 3.1867569538 3.195166146 3.2066114869 3.2130931965 3.2182138379 3.2202100654 3.2267697954 3.2296498856 
3.2300277787 3.231444087 3.2329470433 3.0833405424 3.0886853611 3.0865544368 3.0822386319 3.0747515926 3.0652819132 
3.056083524 3.0466369696 3.0391638959 3.0421127122 3.2317391121 3.2282022744 3.1225719066 3.2301040901 3.1163748358 
3.2324607825 3.2317204888 3.2240364606 3.1055775423 3.1018036365 3.23034676 3.0972924331 3.0877588637 3.0875601435 
3.1114080023 3.2305647569 3.2322735467 3.2328012201 3.176223738 3.0899411168 3.0936518862 3.022809156 3.0307140194 
3.0021488681 3.0067694414 2.9849018612 2.9942517273 3.0069090658 3.040463289 3.0610783727 3.0465581953 3.0974158531 
3.068171632 3.0854888566 3.1023377818 3.1117647974 3.12431352 3.1344196273 3.1440274133 3.15057605 3.1549053218 
3.1521914608 3.1471144819 3.1412897671 3.1343044914 3.1287180978 3.1231211953 3.1176967409 3.1122188517 3.1072485971 
3.0914446 3.0878321389 3.0828999825 3.0755674175 3.0655061602 3.0559065456 3.0476047744 3.0403522895 3.029621985 
3.0956092849 3.1194982285 3.1348409331 3.1479733874 3.1578979968 3.1687866436 3.180385927 3.1864152281 3.1978777304 
3.2114521162 3.2216969204 3.2261431317 3.2291175105 3.2354041174 3.2377358597 3.2376503375 3.2389566942 3.2404033109 
3.0818948821 3.0850715619 3.0844795989 3.0802347792 3.0729497879 3.0636522441 3.0544200318 3.0454647325 3.0379306559 
3.040619163 3.2391311041 3.2366527495 3.1210222364 3.2379161595 3.1148580719 3.2396385603 3.2247715536 3.2327360236 
3.1038511762 3.1003048778 3.2380171998 3.0955465626 3.0858395827 3.085690148 3.1095858113 3.238244767 3.2395013445 
3.2422688556 3.0739022574 3.0813241866 3.0922290401 3.0231825134 3.0318320291 3.0029190663 3.0080949116 2.9858409765 
2.9955414047 3.0083772447 3.0411588472 3.0630824572 3.0479667098 3.0960099983 3.0696133088 3.0877301078 3.103450081 
3.1134597191 3.1258870394 3.1371066576 3.1465860112 3.1538837839 3.1570008151 3.1530590283 3.1467185761 3.1400259923 
3.1329385854 3.1272384365 3.1215061697 3.1162022233 3.1107195531 3.1058031252 3.0900972375 3.086550387 3.081821608 
3.0745782405 3.0647813998 3.0552355457 3.0471727406 3.0397588146 3.0301448981 3.0970543301 3.1213759088 3.1364188318 
3.149521568 3.1589995585 3.1706984612 3.1835730561 3.1911694155 3.2029060845 3.2160629172 3.2278482735 3.2343006997 
3.237269346 3.2440585479 3.2461152792 3.2457573502 3.2463234984 3.2478753485 3.084116489 3.0835238244 3.0849622643 
3.0809153986 3.0740666187 3.0645697334 3.0552987044 3.0466453477 3.0390340859 3.0414665846 3.2464677236 3.2450128849 
3.1195715992 3.2462570787 3.1133519823 3.2467548757 3.0896575216 3.2409386754 3.102434832 3.0990120459 3.2457302585 
3.0940331473 3.0858700666 3.0852089342 3.1080612678 3.2458219187 3.2465065065 3.2447130948 3.0838062994 3.0817871574 
3.0914480896 3.0239309467 3.0322038666 3.0032537411 3.0078578041 2.9857975881 2.9954366538 3.0086609781 3.0413031334 
3.0637594606 3.0484658994 3.0951182858 3.0702065035 3.0887178777 3.1042502806 3.1147780681 3.1271795297 3.1392798316 
3.1481291334 3.1557486062 3.1585617421 3.1536085854 3.1463823549 3.1391095736 3.1321245359 3.1262854669 3.1206015494 
3.1148845546 3.1097193552 3.1048182443 3.0892849894 3.085777411 3.0811423031 3.0739564648 3.0643170135 3.0546579394 
3.0467108738 3.0392579181 3.0301480078 3.097799421 3.1222478058 3.1376618026 3.1507285779 3.1606419979 3.1722959847 
3.184912496 3.1934426995 3.2056301322 3.2196155558 3.2320331308 3.2399878701 3.244433981 3.2515179557 3.2534187096 
3.2538431191 3.2539187502 3.2547462271 3.0832207484 3.0854694814 3.0869484324 3.082832401 3.0763810555 3.0666722543 
3.057424384 3.0488324296 3.0410395342 3.0434356112 3.2538597747 3.2534162405 3.1183763494 3.254012739 3.1122599956 
3.2541043651 3.074487717 3.2483227418 3.1014900945 3.098118068 3.2535087206 3.0931892403 3.0884361483 3.0877600594 
3.1070653899 3.2535231394 3.2543292275 3.2511716252 3.080535122 3.0832831237 3.0910600173 3.0241942114 3.0325594086 
3.0035847359 3.0084030585 2.9863723896 2.9955434053 3.0088980821 3.0416553291 3.0641627482 3.0486462439 3.0945833643 
3.0704468975 3.0892277009 3.104636965 3.1156332428 3.1278422717 3.1405216226 3.1490164689 3.1566387222 3.1596930125 
3.1540521698 3.1462383868 3.138695493 3.1319459623 3.1258729537 3.1202896397 3.1142873898 3.1093831001 3.1044708567 
3.0889061863 3.0855131556 3.0809311469 3.0737704799 3.0642029639 3.0544381841 3.0465471192 3.0390878849 3.030161412 
3.0984176413 3.1228943957 3.1385675289 3.151744633 3.1617366405 3.1734587246 3.185998247 3.1953285315 3.2078373359 
3.2218635868 3.2348782671 3.2443124355 3.2497618934 3.2577388637 3.261429457 3.2608422065 3.261251579 3.2624212708 
3.0864368686 3.0875003156 3.086112209 3.0818935049 3.075738367 3.0665385884 3.0576676831 3.0491831119 3.0413273094 
3.0441341307 3.262028505 3.2596658 3.1178364297 3.2612104467 3.1118533226 3.2617330278 3.0830444969 3.2539139227 
3.1011303519 3.0979164911 3.2610059326 3.0926687966 3.0879292571 3.0874999589 3.1067641108 3.2610282083 3.2620831643 
3.2490270969 3.0839744783 3.0865785058 3.0910414378 3.0238899442 3.0329108121 3.0038207303 3.0090966187 2.9870432693 
2.9958750915 3.0093766693 3.0422890376 3.064777545 3.0486020527 3.094698524 3.0703733614 3.0889098408 3.1042443669 
3.1156233099 3.1279585585 3.1410566499 3.1494743253 3.1571824378 3.1605571491 3.154568772 3.1464884769 3.1388160133 
3.1322506848 3.1259974061 3.1205088278 3.1145147947 3.1095874339 3.1045808928 3.0890474784 3.085627654 3.0810533843 
3.0739309514 3.0643711404 3.0546500735 3.0467507428 3.0392668266 3.0301955488 3.0993285718 3.1236971445 3.139632022 
3.1529307667 3.1629540935 3.1747300839 3.1871124185 3.1968900599 3.2097787877 3.2237293575 3.2370192715 3.2472437226 
3.2535007506 3.2619265283 3.2660364059 3.2671538201 3.2679619183 3.2692502036 3.0846651621 3.084560064 3.0828946404 
3.0786049254 3.072428285 3.0636121087 3.0551067118 3.0470219502 3.0393266061 3.0425064939 3.2681800559 3.2645560522 
3.1180652597 3.2671987742 3.1120507429 3.2682818227 3.0870334313 3.2578953236 3.1012937023 3.0979027546 3.2673069352 
3.0926719519 3.0844762594 3.0840322348 3.1069089282 3.2673981942 3.2681458864 3.1369532828 3.0852734533 3.08595569 
3.0916544596 3.0235044402 3.0333449717 3.0040369311 3.0098768948 2.9877879791 2.9963462666 3.0099840471 3.0431231329 
3.0655636266 3.0482107774 3.0955013536 3.0697998491 3.0885565488 3.1039265661 3.1156202483 3.1278205453 3.1412287486 
3.1494401168 3.1575040924 3.1612596045 3.1552465331 3.1471815404 3.1395032779 3.1330725886 3.1267452552 3.1212779914 
3.115207954 3.1102712686 3.1052027755 3.0896721048 3.0862183036 3.081538847 3.0744273562 3.0648382501 3.0551186382 
3.0471794357 3.0396965603 3.030510152 3.1005050665 3.1247434859 3.1410035935 3.1543981489 3.1644329207 3.1762389859 
3.1884888489 3.1985921422 3.2117733404 3.2255789586 3.2389464506 3.2494926361 3.25607107 3.2649166368 3.2696600774 
3.2713015676 3.2722332717 3.2731389232 3.079685823 3.0812855698 3.0793165756 3.075099851 3.0688927662 3.0600478008 
3.0517103731 3.0439678142 3.0366265666 3.0397976606 3.2727873819 3.2677644776 3.1187530868 3.270915278 3.1127545884 
3.2733760812 3.0781979185 3.2605365033 3.1018593943 3.0985024906 3.2717833669 3.0933868219 3.0807685226 3.0812543631 
3.1076358655 3.2718632554 3.2731716586 3.087574886 3.0800808067 3.0802290235 3.0926785722 3.0235102196 3.0336943195 
3.0041257052 3.0106220679 2.9886769212 2.9969782004 3.0106875302 3.0442173814 3.0665291576 3.0473284228 3.0965707778 
3.0688332262 3.0876471649 3.1032878647 3.1152398351 3.1273325698 3.1407799501 3.1492472325 3.1573541364 3.1619594493 
3.1562108524 3.1483722909 3.1407499312 3.1344052479 3.1279932934 3.1225257284 3.1164014033 3.1114418797 3.1062987799 
3.0906450946 3.0871363938 3.0823598623 3.0752205553 3.0655353832 3.055783369 3.0477573206 3.0402967481 3.0309789034 
3.1019969047 3.1260880755 3.1426855566 3.1561583587 3.1661869344 3.1780049414 3.1901479296 3.200474595 3.2138962033 
3.2275472325 3.2409080762 3.2515170934 3.2581033923 3.2671223913 3.2721153399 3.2742273852 3.275350417 3.2763121233 
3.0751032858 3.0765044926 3.075599238 3.0716419176 3.0656872647 3.0568627698 3.0486855514 3.0411890692 3.0344786512 
3.0372706209 3.2760641061 3.2701753081 3.1199213536 3.2736005724 3.1139066635 3.2768893334 3.078766013 3.2625034127 
3.1028596331 3.0995341555 3.2747652697 3.0944862344 3.0768217447 3.0767140932 3.1088056321 3.2749604247 3.2765280546 
3.0841699121 3.0772336055 3.0746963858 3.0938533825 3.0234507185 3.0339209507 3.0040112724 3.0108429065 2.9894434437 
2.9977139693 3.011430675 3.0455109102 3.0677753544 3.0462584997 3.097806657 3.0677072437 3.0863861817 3.1023559923 
3.114443179 3.1265370981 3.139852991 3.1490347642 3.1571125477 3.1626598959 3.1574713421 3.150032378 3.1424565678 
3.1361045849 3.1295691581 3.1240541682 3.1179808828 3.1127938472 3.1076610737 3.0918181391 3.0882425379 3.0833403349 
3.0761479525 3.0663470031 3.0565350618 3.0483932564 3.0409592954 3.0312819027 3.1037970254 3.1278282211 3.1446403598 
3.1581625444 3.1681853425 3.1800012286 3.1921049909 3.2025587437 3.2162475214 3.2297164909 3.2429911495 3.2535789211 
3.2600172762 3.2688691495 3.2742060783 3.2763664546 3.2775726107 3.2793592931 3.0718862254 3.0726976786 3.0721976771 
3.0684239355 3.0626959336 3.0539732911 3.0459647438 3.0386299561 3.0324845474 3.0348808146 3.2783717553 3.2721323955 
3.1214605806 3.2755593011 3.1152909316 3.2793406485 3.0779549867 3.2642671321 3.1040993512 3.1006897095 3.276921175 
3.0957402483 3.0735396839 3.0736560173 3.1101793403 3.2771511433 3.2788508533 3.0884558368 3.0749679126 3.0706728183 
3.0951144292 3.0232182658 3.0340766968 3.0037557553 3.0103500451 2.9900765935 2.9986885088 3.0123043567 3.046831451 
3.0691443506 3.0451395921 3.0990938451 3.0664273214 3.0851075026 3.1009441536 3.1129452778 3.1252880161 3.13861342 
3.1485140527 3.1572498893 3.1632561078 3.158805717 3.1519101215 3.1443284121 3.1379148717 3.1312510316 3.1256217561 
3.1196248889 3.1143392255 3.1090866096 3.0930371529 3.0893710532 3.0843396019 3.0770503037 3.0671206723 3.0572440236 
3.0489816179 3.0415676055 3.031456015 3.105757747 3.1299806464 3.1467457225 3.160360718 3.170375729 3.1821792458 
3.1943420361 3.2048812828 3.2189385885 3.2321644693 3.2453267493 3.2558476161 3.2620689365 3.2706564453 3.2761926573 
3.2783166546 3.279439793 3.285095913 3.0680297347 3.0692274955 3.0689830536 3.0653758762 3.059774725 3.0512671223 
3.043460665 3.03627136 3.0305823905 3.0326366248 3.2802882558 3.2740181157 3.1231446906 3.2775171112 3.1169488991 
3.2813405036 3.0715631261 3.2661298398 3.1055811729 3.1020015958 3.2787975039 3.0970236805 3.0702855914 3.0703926881 
3.1116906711 3.2790313523 3.2808392697 3.0771840186 3.0694865221 3.0671646585 3.0962739873 3.0228429556 3.0341043585 
3.0036896093 3.0100109355 2.9909150669 2.9998574749 3.0132687282 3.0483803339 3.0706842623 3.043894815 3.1002534606 
3.0650196936 3.0839354984 3.0989313892 3.1107498699 3.1235671246 3.1368421793 3.1480682323 3.1566731942 3.1635251342 
3.1600006481 3.1537432311 3.1462639594 3.139697783 3.1328825204 3.1270858876 3.1211769019 3.1157933796 3.1104418957 
3.0941244261 3.0903936971 3.0852486636 3.0778570193 3.0677998162 3.0578625462 3.0494831539 3.0420887621 3.0316091588 
3.1080130782 3.1325127504 3.1490355874 3.1627721147 3.1727416571 3.1846089216 3.1968895907 3.2074448125 3.2219328655 
3.2348541219 3.2478729612 3.2582329527 3.2642971927 3.2726158909 3.2782554914 3.2803905424 3.2813899642 3.2835089043 
3.0675187112 3.0677729088 3.0666630322 3.0630612465 3.0573068651 3.0492218598 3.0416369786 3.0344740181 3.0291807312 
3.0310483191 3.2822741054 3.2759802402 3.1247579535 3.2796109269 3.1185254092 3.2825517041 3.0706471677 3.2681843337 
3.1068789521 3.103179341 3.2808162602 3.0982210908 3.0680132327 3.0681315224 3.1130780596 3.2809707325 3.2833238473 
3.066642929 3.0696031897 3.0666614296 3.0973655851 3.022942792 3.033767355 3.0035531585 3.0103337143 2.9917365707 
3.0010472775 3.0142951953 3.0501244271 3.0724752443 3.0424114316 3.1014293759 3.0635030769 3.0825901298 3.0970027826 
3.1086175271 3.1217310311 3.1348107488 3.1474666009 3.1568819294 3.1639952574 3.1617091919 3.1560304225 3.1484658108 
3.1415410992 3.1344861141 3.128379772 3.1226859374 3.1168761791 3.1116559533 3.0951601059 3.0913922869 3.0861295439 
3.0786506593 3.06844294 3.0583968693 3.049888837 3.0424671003 3.0314337506 3.1102891078 3.1350178527 3.1512833563 
3.1651547246 3.1750988123 3.1869415964 3.1995028039 3.210035426 3.224795602 3.2375169122 3.2502299548 3.2607414432 
3.2666956733 3.27477373 3.2806660224 3.2831599064 3.2841563397 3.1200871428 3.0657598737 3.0659609845 3.065095729 
3.0620290273 3.0565052846 3.0488762235 3.0414293662 3.0345011077 3.0292946334 3.0311428156 3.2851020502 3.2781143209 
3.1262450092 3.2818760096 3.1199272629 3.2837914201 3.0663976994 3.2704498074 3.1080547458 3.1043614685 3.283263744 
3.0993743427 3.066326961 3.0664120729 3.1142631634 3.2835990564 3.2858738363 3.0626476032 3.0652978435 3.0652534671 
3.0984359037 3.0239062824 3.0321787313 3.0025432098 3.0104110045 2.9915258712 3.0012893642 3.0147145163 3.0504791428 
3.0734566414 3.0405138238 3.1026056444 3.0612843792 3.0804839 3.0951149227 3.1067813357 3.1200791007 3.1326119295 
3.1475004613 3.1563161252 3.1647156731 3.163908638 3.1586477664 3.1511151209 3.1435919225 3.1361858828 3.1298646915 
3.1241557686 3.1186866463 3.1130508804 3.0962046542 3.0923122014 3.0869996496 3.0793252285 3.0689016286 3.0586884339 
3.0500764451 3.0425854281 3.0304602298 3.1115764955 3.1367898565 3.1527837036 3.1665974755 3.1766843487 3.1889026939 
3.2017487841 3.2122899724 3.2270552916 3.2399950581 3.2530847088 3.2630218736 3.2693985924 3.2777099967 3.2847073403 
3.2866639853 3.2867693007 3.0524545729 3.0675375529 3.0676093272 3.0675761516 3.0639943755 3.0590339334 3.0513452905 
3.0438636405 3.0367492335 3.0315268259 3.0332947795 3.2875103642 3.281391029 3.1278383917 3.2858428226 3.1212945858 
3.2810627875 3.0631066919 3.2731259172 3.1095517846 3.1056853121 3.2868437678 3.1004922914 3.0686331327 3.0684645178 
3.1157617295 3.2870107156 3.2979976505 3.0539798531 3.0659993508 3.0673644381 3.0991654915 3.0250080251 3.030543619 
2.9999791499 3.0058907155 2.9906216073 3.0001841393 3.0141850662 3.0493074109 3.0731613931 3.0380875686 3.1034298055 
3.0596967362 3.0788440519 3.0948851035 3.1060701898 3.1196023517 3.1310539319 3.1483018025 3.1577713026 3.1667455988 
3.1688517696 3.1628087357 3.1548235636 3.1458358039 3.1380083075 3.1313050595 3.1250012799 3.119034769 3.1141377264 
3.0971400364 3.0930100257 3.0876929114 3.0800255775 3.0692766277 3.0586729543 3.0499361507 3.0421608976 3.0288381489 
3.1120294007 3.1373709355 3.1538694618 3.168363003 3.1783951803 3.1907469595 3.2036418472 3.2148236023 3.2304963215 
3.2439285732 3.2570880231 3.2698852464 3.2741643183 3.281925216 3.2875806339 3.28804139 3.2859934842 3.0653277498 
3.0725838 3.0719326484 3.0713070802 3.0689738988 3.0637094709 3.0554204446 3.0481184644 3.040993798 3.0352966467 
3.037686929 3.2914282508 3.2853817797 3.1285795367 3.287579588 3.122013052 3.0633376063 3.0719495463 3.2774496514 
3.1100695891 3.1064890568 3.2872014054 3.1012744737 3.0724777272 3.0725768383 3.1168213304 3.2865773352 3.2307572607 
3.0644731452 3.0720658842 3.0720947578 3.0992767402 3.0286179375 3.0324752452 3.0033333399 3.0071783839 2.9906129308 
3.0018406091 3.0164414785 3.0510934439 3.0732927019 3.041549327 3.1023610664 3.0620545338 3.0819338273 3.0965893439 
3.1087323713 3.1220860907 3.1341373846 3.1530648543 3.1728825027 3.17441902 3.1737873965 3.1662083818 3.1556176786 
3.1454159293 3.1375766654 3.1302072213 3.1240895983 3.1173447111 3.1121348317 3.0959862902 3.0935624197 3.0880943726 
3.0786271509 3.0691494474 3.0579401152 3.0489896847 3.040263495 3.0273704951 3.1095556535 3.136825768 3.1592669851 
3.1736914082 3.1825795545 3.2010307772 3.2098362537 3.2205460403 3.2378540018 3.2507848865 3.2667604788 3.2747743049 