# vtk DataFile Version 4.2
vtk output
ASCII
DATASET POLYDATA
POINTS 6409 float
2517.88 -3003.14 5800 2522.86 -3005.87 5800 2528.69 -3003.14 5800 
2501.68 -2990.14 5800 2551.86 -2992.31 5800 2556.5 -2990.14 5800 
2492.79 -2977.14 5800 2493.86 -2979.86 5800 2580.86 -2978.75 5800 
2584.31 -2977.14 5800 2487.69 -2964.14 5800 2609.86 -2965.2 5800 
2612.13 -2964.14 5800 2482.58 -2951.14 5800 2638.86 -2951.64 5800 
2639.94 -2951.14 5800 2477.48 -2938.14 5800 2667.75 -2938.13 5800 
2472.37 -2925.14 5800 2667.87 -2938.08 5800 2695.56 -2925.13 5800 
2467.27 -2912.14 5800 2696.87 -2924.52 5800 2723.37 -2912.13 5800 
2462.16 -2899.14 5800 2464.86 -2906.01 5800 2725.87 -2910.96 5800 
2737.17 -2899.13 5800 2457.06 -2886.14 5800 2743.85 -2886.13 5800 
2451.95 -2873.14 5800 2749.66 -2873.13 5800 2446.85 -2860.14 5800 
2754.88 -2861.44 5800 2755.46 -2860.13 5800 2441.74 -2847.13 5800 
2761.27 -2847.12 5800 2436.64 -2834.13 5800 2767.07 -2834.12 5800 
2431.54 -2821.13 5800 2435.87 -2832.16 5800 2772.87 -2821.12 5800 
2426.43 -2808.13 5800 2778.68 -2808.12 5800 2421.33 -2795.13 5800 
2783.88 -2796.46 5800 2784.48 -2795.12 5800 2416.22 -2782.13 5800 
2790.29 -2782.12 5800 2411.12 -2769.13 5800 2796.09 -2769.12 5800 
2405.87 -2756.13 5800 2406.87 -2758.32 5800 2801.89 -2756.12 5800 
2389.49 -2743.13 5800 2807.7 -2743.11 5800 2371.09 -2730.13 5800 
2377.87 -2734.92 5800 2812.89 -2731.49 5800 2813.5 -2730.11 5800 
2352.7 -2717.13 5800 2819.3 -2717.11 5800 2334.3 -2704.13 5800 
2348.87 -2714.42 5800 2825.11 -2704.11 5800 2315.91 -2691.13 5800 
2319.87 -2693.93 5800 2830.91 -2691.11 5800 2297.52 -2678.13 5800 
2836.72 -2678.11 5800 2279.12 -2665.13 5800 2290.87 -2673.43 5800 
2841.89 -2666.51 5800 2842.52 -2665.11 5800 2260.73 -2652.13 5800 
2261.87 -2652.94 5800 2848.32 -2652.11 5800 2242.33 -2639.13 5800 
2854.13 -2639.1 5800 2223.2 -2626.13 5800 2232.87 -2632.44 5800 
2859.93 -2626.1 5800 2202.21 -2613.13 5800 2203.88 -2614.11 5800 
2865.74 -2613.1 5800 2180.25 -2600.12 5800 2870.9 -2601.54 5800 
2871.51 -2600.1 5800 2158.3 -2587.12 5800 2174.88 -2596.94 5800 
2880.01 -2587.1 5800 2136.35 -2574.12 5800 2145.88 -2579.77 5800 
2891.63 -2574.1 5800 2114.39 -2561.12 5800 2116.88 -2562.59 5800 
2899.9 -2566.36 5800 2905.42 -2561.1 5800 2092.44 -2548.12 5800 
2919.06 -2548.1 5800 2070.48 -2535.12 5800 2087.88 -2545.42 5800 
2928.91 -2538.71 5800 2932.7 -2535.09 5800 2048.53 -2522.12 5800 
2058.88 -2528.25 5800 2946.33 -2522.09 5800 2028.92 -2509.12 5800 
2029.88 -2511.08 5800 2957.91 -2511.06 5800 2959.97 -2509.09 5800 
2025.57 -2496.12 5800 2973.61 -2496.09 5800 2025.94 -2483.12 5800 
2986.91 -2483.41 5800 2987.25 -2483.09 5800 2026.31 -2470.12 5800 
3000.88 -2470.09 5800 2026.67 -2457.12 5800 3014.52 -2457.08 5800 
2027.04 -2444.12 5800 3015.92 -2455.76 5800 3028.16 -2444.08 5800 
2027.41 -2431.12 5800 3041.79 -2431.08 5800 2027.78 -2418.12 5800 
3044.92 -2428.1 5800 3055.43 -2418.08 5800 2028.14 -2405.11 5800 
3069.07 -2405.08 5800 2028.51 -2392.11 5800 3073.92 -2400.45 5800 
3082.71 -2392.08 5800 2028.88 -2379.11 5800 3096.34 -2379.08 5800 
2029.25 -2366.11 5800 3102.92 -2372.8 5800 3109.98 -2366.07 5800 
2029.61 -2353.11 5800 3123.62 -2353.07 5800 2029.89 -2343.34 5800 
2029.98 -2340.11 5800 3131.93 -2345.15 5800 3137.25 -2340.07 5800 
2030.35 -2327.11 5800 3150.89 -2327.07 5800 2030.72 -2314.11 5800 
3160.93 -2317.5 5800 3164.53 -2314.07 5800 2031.08 -2301.11 5800 
3177.47 -2301.07 5800 2031.45 -2288.11 5800 3182.67 -2288.07 5800 
2031.82 -2275.1 5800 3185.66 -2275.07 5800 2032.19 -2262.1 5800 
3187.16 -2262.06 5800 2032.55 -2249.1 5800 3188.66 -2249.06 5800 
2032.92 -2236.1 5800 3189.94 -2238.02 5800 3190.16 -2236.06 5800 
2033.29 -2223.1 5800 3191.66 -2223.06 5800 2033.66 -2210.1 5800 
3193.17 -2210.06 5800 2034.03 -2197.1 5800 3194.67 -2197.06 5800 
2034.39 -2184.1 5800 3196.17 -2184.06 5800 2034.76 -2171.1 5800 
3197.67 -2171.06 5800 2035.13 -2158.1 5800 3199.17 -2158.06 5800 
2035.5 -2145.09 5800 3200.67 -2145.05 5800 2035.86 -2132.09 5800 
3202.17 -2132.05 5800 2036.23 -2119.09 5800 3203.67 -2119.05 5800 
2036.6 -2106.09 5800 3205.17 -2106.05 5800 2037.02 -2093.09 5800 
3206.67 -2093.05 5800 2037.51 -2080.09 5800 3208.17 -2080.05 5800 
2037.99 -2067.09 5800 3209.67 -2067.05 5800 2038.47 -2054.09 5800 
3211.17 -2054.05 5800 2038.63 -2041.09 5800 3212.67 -2041.05 5800 
2035.93 -2028.09 5800 3214.17 -2028.05 5800 2033.1 -2015.08 5800 
3215.67 -2015.04 5800 2030.21 -2002.08 5800 3217.17 -2002.04 5800 
2027.35 -1989.08 5800 2029.92 -2000.79 5800 3218.68 -1989.04 5800 
2024.5 -1976.08 5800 3218.96 -1986.59 5800 3220.18 -1976.04 5800 
2021.65 -1963.08 5800 3221.67 -1963.04 5800 2018.8 -1950.08 5800 
3222.76 -1950.04 5800 2015.95 -1937.08 5800 3223.84 -1937.04 5800 
2013.1 -1924.08 5800 3224.89 -1924.04 5800 2010.34 -1911.08 5800 
3225.94 -1911.04 5800 2007.54 -1898.08 5800 3226.99 -1898.03 5800 
2004.67 -1885.08 5800 3228.04 -1885.03 5800 2001.73 -1872.07 5800 
3229.09 -1872.03 5800 1998.84 -1859.07 5800 2000.93 -1868.57 5800 
3230.14 -1859.03 5800 1995.99 -1846.07 5800 3231.19 -1846.03 5800 
1993.14 -1833.07 5800 3232.24 -1833.03 5800 1990.29 -1820.07 5800 
3233.29 -1820.03 5800 1987.5 -1807.07 5800 3234.34 -1807.03 5800 
1984.79 -1794.07 5800 3235.39 -1794.03 5800 1982.01 -1781.07 5800 
3236.44 -1781.03 5800 1979.16 -1768.07 5800 3237.49 -1768.02 5800 
1976.25 -1755.07 5800 3238.54 -1755.02 5800 1973.27 -1742.07 5800 
3239.59 -1742.02 5800 1970.85 -1729.06 5800 1971.93 -1736.35 5800 
3240.64 -1729.02 5800 1969.47 -1716.06 5800 3241.69 -1716.02 5800 
1971.94 -1704.28 5800 1972.33 -1703.06 5800 3242.74 -1703.02 5800 
1976.73 -1690.06 5800 3243.79 -1690.02 5800 1979.81 -1677.06 5800 
3244.84 -1677.02 5800 1983.58 -1664.06 5800 3245.89 -1664.02 5800 
1987.33 -1651.06 5800 3246.94 -1651.02 5800 1991.07 -1638.06 5800 
3247.99 -1638.02 5800 3247.99 -1638.01 5800 1994.78 -1625.06 5800 
3248.92 -1625.01 5800 1998.48 -1612.06 5800 3249.82 -1612.01 5800 
2000.95 -1603.35 5800 2002.19 -1599.05 5800 3250.71 -1599.01 5800 
2005.97 -1586.05 5800 3259.99 -1586.01 5800 2009.75 -1573.05 5800 
3263.45 -1573.01 5800 2013.53 -1560.05 5800 3264.61 -1560.01 5800 
2017.31 -1547.05 5800 3265.33 -1547.01 5800 2021.09 -1534.05 5800 
3266.86 -1534.01 5800 2024.87 -1521.05 5800 3267.41 -1521 5800 
2028.65 -1508.05 5800 3267.83 -1508 5800 2029.95 -1501.02 5800 
2031.02 -1495.05 5800 3268.25 -1495 5800 2031.96 -1482.04 5800 
3268.67 -1482 5800 2032.9 -1469.04 5800 3269.09 -1469 5800 
2033.85 -1456.04 5800 3269.51 -1456 5800 2034.79 -1443.04 5800 
3269.93 -1443 5800 2035.88 -1430.04 5800 3270.36 -1430 5800 
2037.24 -1417.04 5800 3270.78 -1417 5800 2038.56 -1404.04 5800 
3271.2 -1404 5800 2039.83 -1391.04 5800 3271.62 -1390.99 5800 
2041.22 -1378.04 5800 3272.04 -1377.99 5800 2042.64 -1365.03 5800 
3272.46 -1364.99 5800 2044.07 -1352.03 5800 3272.88 -1351.99 5800 
2045.48 -1339.03 5800 3273.3 -1338.99 5800 2046.48 -1326.03 5800 
3273.72 -1325.99 5800 2047.36 -1313.03 5800 3274.14 -1312.99 5800 
2048.24 -1300.03 5800 3274.57 -1299.99 5800 2049.12 -1287.03 5800 
3274.99 -1286.99 5800 2050 -1274.03 5800 3275.41 -1273.98 5800 
2050.89 -1261.03 5800 3275.83 -1260.98 5800 2051.77 -1248.03 5800 
3276.25 -1247.98 5800 2052.62 -1235.02 5800 3276.67 -1234.98 5800 
2051.15 -1222.02 5800 3277.02 -1224.24 5800 3277.09 -1221.98 5800 
2049.94 -1209.02 5800 3277.51 -1208.98 5800 2048.94 -1196.02 5800 
3277.93 -1195.98 5800 2048.09 -1183.02 5800 3278.35 -1182.98 5800 
2047.36 -1170.02 5800 3278.78 -1169.98 5800 2046.73 -1157.02 5800 
3279.21 -1156.98 5800 2046.18 -1144.02 5800 3279.65 -1143.97 5800 
2045.7 -1131.02 5800 3280.09 -1130.97 5800 2045.15 -1118.02 5800 
3280.53 -1117.97 5800 2043.97 -1105.01 5800 3281.05 -1104.97 5800 
2042.79 -1092.01 5800 3281.49 -1091.97 5800 2041.15 -1079.01 5800 
3281.7 -1078.97 5800 2038.12 -1066.01 5800 3282.17 -1065.97 5800 
2039.2 -1053.01 5800 3282.61 -1052.97 5800 2039.94 -1040.01 5800 
3283.04 -1039.97 5800 2041.47 -1027.01 5800 3283.46 -1026.97 5800 
2043.53 -1014.01 5800 3283.88 -1013.96 5800 2045.59 -1001.01 5800 
3284.3 -1000.96 5800 2047.66 -988.005 5800 3284.77 -987.963 5800 
2049.72 -975.004 5800 3285.25 -974.962 5800 2051.78 -962.003 5800 
3285.72 -961.961 5800 2053.84 -949.002 5800 2557.82 -948.985 5800 
2581.02 -954.292 5800 2593.44 -948.984 5800 3285.51 -948.96 5800 
2055.9 -936.001 5800 2537.12 -935.984 5800 2552.02 -947.6 5800 
2610.02 -940.924 5800 2639.02 -936.211 5800 2642.47 -935.981 5800 
3284.87 -935.959 5800 2057.95 -923 5800 2519.99 -922.984 5800 
2523.02 -924.992 5800 2668.02 -934.372 5800 2697.02 -933.367 5800 
2726.02 -932.349 5800 2755.02 -923.734 5800 2755.4 -922.976 5800 
3284.38 -922.958 5800 2059 -916.478 5800 2060.03 -909.999 5800 
2502.59 -909.984 5800 2761.88 -909.975 5800 3282.29 -909.957 5800 
2062.09 -896.998 5800 2481.64 -896.983 5800 2494.02 -903.908 5800 
2768.36 -896.974 5800 3279.6 -896.956 5800 2064.15 -883.997 5800 
2465.02 -883.983 5800 2774.84 -883.972 5800 3277.04 -884.627 5800 
3276.9 -883.955 5800 2066.21 -870.996 5800 2442.85 -870.983 5800 
2465.02 -883.978 5800 2781.32 -870.971 5800 3274.22 -870.954 5800 
2068.28 -857.995 5800 2424.91 -857.982 5800 2436.02 -866.467 5800 
2784.03 -865.535 5800 2787.8 -857.97 5800 3271.52 -857.953 5800 
2070.34 -844.994 5800 2412.58 -844.982 5800 2794.28 -844.969 5800 
3268.83 -844.952 5800 2072.38 -831.993 5800 2404.85 -831.981 5800 
2407.02 -837.24 5800 2800.76 -831.967 5800 3266.14 -831.951 5800 
2074.39 -818.992 5800 2397.2 -818.98 5800 2807.24 -818.966 5800 
3263.45 -818.951 5800 2076.41 -805.99 5800 2387.89 -805.98 5800 
2813.03 -807.338 5800 2813.73 -805.965 5800 3260.76 -805.95 5800 
2078.38 -792.989 5800 2378.57 -792.979 5800 2822.72 -792.964 5800 
3257.86 -792.949 5800 2080.35 -779.988 5800 2369.26 -779.978 5800 
2378.02 -792.211 5800 2835.36 -779.962 5800 3254.55 -779.948 5800 
2082.31 -766.987 5800 2359.94 -766.978 5800 2842.04 -773.359 5800 
2849.03 -766.961 5800 3251.17 -766.947 5800 2084.28 -753.986 5800 
[...]
POINT_DATA 6409
SCALARS Pressure double
LOOKUP_TABLE default
3.0932710339 3.0932710339 3.0932710339 3.0932710339 3.0932710339 3.0932710339 3.0932710339 3.0932710339 3.0932710339 
3.0932710339 3.0932710339 3.0932710339 3.0932710339 3.0932710339 3.0932710339 3.0932710339 3.0932710339 3.0932710339 
3.0932710339 3.0932710339 3.0932710339 3.0932710339 3.0932710339 3.0932710339 3.0932710339 3.0932710339 3.0932710339 
3.0932710339 3.0932710339 3.0932710339 3.0932710339 3.0932710339 3.0932710339 3.0932710339 3.0932710339 3.0932710339 
3.0932710339 3.0932710339 3.0932710339 3.0932710339 3.0932710339 3.0932710339 3.0932710339 3.0932710339 3.0932710339 
3.0932710339 3.0932710339 3.0932710339 3.0932710339 3.0932710339 3.0932710339 3.0932710339 3.0932710339 3.0932710339 
3.0932710339 3.0932710339 3.0932710339 3.0932710339 3.0932710339 3.0932710339 3.0932710339 3.0932710339 3.0932710339 
3.0932710339 3.0932710339 3.0932710339 3.0932710339 3.0932710339 3.0932710339 3.0932710339 3.0932710339 3.0932710339 
3.0932710339 3.0932710339 3.0932710339 3.0932710339 3.0932710339 3.0932710339 3.0932710339 3.0932710339 3.0932710339 
3.0932710339 3.0932710339 3.0932710339 3.0932710339 3.0932710339 3.0932710339 3.0932710339 3.0932710339 3.0932710339 
3.0932710339 3.0932710339 3.0932710339 3.0932710339 3.0932710339 3.0932710339 3.0932710339 3.0932710339 3.0932710339 
3.0932710339 3.0932710339 3.0932710339 3.0932710339 3.0932710339 3.0932710339 3.0932710339 3.0932710339 3.0932710339 
3.0932710339 3.0932710339 3.0932710339 3.0932710339 3.0932710339 3.0932710339 3.0932710339 3.0932710339 3.0932710339 
3.0932710339 3.0932710339 3.0932710339 3.0932710339 3.0932710339 3.0932710339 3.0932710339 3.0932710339 3.0932710339 
3.0932710339 3.0932710339 3.0932710339 3.0932710339 3.0932710339 3.0932710339 3.0932710339 3.0932710339 3.0932710339 
3.0932710339 3.0932710339 3.0932710339 3.0932710339 3.0932710339 3.0932710339 3.0932710339 3.0932710339 3.0932710339 
3.0932710339 3.0932710339 3.0932710339 3.0932710339 3.0932710339 3.0932710339 3.0932710339 3.0932710339 3.0932710339 
3.0932710339 3.0932710339 3.0932710339 3.0932710339 3.0932710339 3.0932710339 3.0932710339 3.0932710339 3.0932710339 
3.0932710339 3.0932710339 3.0932710339 3.0932710339 3.0932710339 3.0932710339 3.0932710339 3.0932710339 3.0932710339 
3.0932710339 3.0932710339 3.0932710339 3.0932710339 3.0932710339 3.0932710339 3.0932710339 3.0932710339 3.0932710339 
3.0932710339 3.0932710339 3.0932710339 3.0932710339 3.0932710339 3.0932710339 3.0932710339 3.0932710339 3.0932710339 
3.0932710339 3.0932710339 3.0932710339 3.0932710339 3.0932710339 3.0932710339 3.0932710339 3.0932710339 3.0932710339 
3.0932710339 3.0932710339 3.0932710339 3.0932710339 3.0932710339 3.0932710339 3.0932710339 3.0932710339 3.0932710339 
3.0932710339 3.0932710339 3.0932710339 3.0932710339 3.0932710339 3.0932710339 3.0932710339 3.0932710339 3.0932710339 
3.0932710339 3.0932710339 3.0932710339 3.0932710339 3.0932710339 3.0932710339 3.0932710339 3.0932710339 3.0932710339 
3.0932710339 3.0932710339 3.0932710339 3.0932710339 3.0932710339 3.0932710339 3.0932710339 3.0932710339 3.0932710339 
3.0932710339 3.0932710339 3.0932710339 3.0932710339 3.0932710339 3.0932710339 3.0932710339 3.0932710339 3.0932710339 
3.0932710339 3.0932710339 3.0932710339 3.0932710339 3.0932710339 3.0932710339 3.0932710339 3.0932710339 3.0932710339 
3.0932710339 3.0932710339 3.0932710339 3.0932710339 3.0932710339 3.0932710339 3.0932710339 3.0932710339 3.0932710339 
3.0932710339 3.0932710339 3.0932710339 3.0932710339 3.0932710339 3.0932710339 3.0932710339 3.0932710339 3.0932710339 
3.0932710339 3.0932710339 3.0932710339 3.0932710339 3.0932710339 3.0932710339 3.0932710339 3.0932710339 3.0932710339 
3.0932710339 3.0932710339 3.0932710339 3.0932710339 3.0932710339 3.0932710339 3.0932710339 3.0932710339 3.0932710339 
3.0932710339 3.0932710339 3.0932710339 3.0932710339 3.0932710339 3.0932710339 3.0932710339 3.0932710339 3.0932710339 
3.0932710339 3.0932710339 3.0932710339 3.0932710339 3.0932710339 3.0932710339 3.0932710339 3.0932710339 3.0932710339 
3.0932710339 3.0932710339 3.0932710339 3.0932710339 3.0932710339 3.0932710339 3.0932710339 3.0932710339 3.0932710339 
3.0932710339 3.0932710339 3.0932710339 3.0932710339 3.0932710339 3.0932710339 3.0932710339 3.0932710339 3.0932710339 
3.0932710339 3.0932710339 3.0932710339 3.0932710339 3.0932710339 3.0932710339 3.0932710339 3.0932710339 3.0932710339 
3.0932710339 3.0932710339 3.0932710339 3.0932710339 3.0932710339 3.0932710339 3.0932710339 3.0932710339 3.0932710339 
3.0932710339 3.0932710339 3.0932710339 3.0932710339 3.0932710339 3.0932710339 3.0932710339 3.0932710339 3.0932710339 
3.0932710339 3.0932710339 3.0932710339 3.0932710339 3.0932710339 3.0932710339 3.0932710339 3.0932710339 3.0932710339 
3.0932710339 3.0932710339 3.0932710339 3.0932710339 3.0932710339 3.0932710339 3.0932710339 3.0932710339 3.1078652246 
3.1078652246 3.1078652246 3.0932710339 3.0932710339 3.1078652246 3.1078652246 3.1078652246 3.1078652246 3.1078652246 
3.0932710339 3.0932710339 3.1078652246 3.1078652246 3.1078652246 3.1078652246 3.1078652246 3.1078652246 3.1078652246 
3.0932710339 3.0932710339 3.0932710339 3.1078652246 3.1078652246 3.0932710339 3.0932710339 3.1078652246 3.1078652246 
3.1078652246 3.0932710339 3.0932710339 3.1078652246 3.1078652246 3.0932710339 3.0932710339 3.0932710339 3.1078652246 
3.1078652246 3.1078652246 3.0932710339 3.0932710339 3.1078652246 3.1078652246 3.1078652246 3.1078652246 3.0932710339 
3.0932710339 3.1078652246 3.1078652246 3.0932710339 3.0932710339 3.1078652246 3.1078652246 3.1078652246 3.0932710339 
3.0932710339 3.1078652246 3.1078652246 3.0932710339 3.0932710339 3.1078652246 3.1078652246 3.1078652246 3.0932710339 
3.0932710339 3.1078652246 3.1078652246 3.0932710339 3.0932710339 3.1078652246 3.1078652246 3.1078652246 3.0932710339 
3.0932710339 3.1078652246 3.1078652246 3.1078652246 3.0932710339 3.0932710339 3.1078652246 3.1078652246 3.0932710339 
3.0932710339 3.0932710339 3.1078652246 3.1078652246 3.1078652246 3.1078652246 3.0932710339 3.0932710339 3.1078652246 
3.1078652246 3.0932710339 3.0932710339 3.1078652246 3.1078652246 3.0932710339 3.0932710339 3.1078652246 3.1078652246 
3.1078652246 3.0932710339 3.0932710339 3.1078652246 3.1078652246 3.1078652246 3.0932710339 3.0932710339 3.1078652246 
3.1078652246 3.0932710339 3.0932710339 3.1078652246 3.1078652246 3.0932710339 3.0932710339 3.0932710339 3.1078652246 
3.1078652246 3.0932710339 3.0932710339 3.1078652246 3.1078652246 3.0932710339 3.0932710339 3.1078652246 3.1078652246 
3.0932710339 3.0932710339 3.1078652246 3.1078652246 3.1078652246 3.0932710339 3.0932710339 3.1078652246 3.1224594153 
3.1224594153 3.1224594153 3.1078652246 3.0932710339 3.0932710339 3.1078652246 3.1078652246 3.1224594153 3.1224594153 
3.1224594153 3.1224594153 3.1078652246 3.0932710339 3.0932710339 3.1078652246 3.1224594153 3.1224594153 3.1224594153 
3.1224594153 3.1078652246 3.0932710339 3.0932710339 3.1078652246 3.1224594153 3.1224594153 3.1224594153 3.1224594153 
3.1078652246 3.1078652246 3.0932710339 3.0932710339 3.1078652246 3.1224594153 3.1224594153 3.1224594153 3.1078652246 
3.0932710339 3.0932710339 3.1078652246 3.1224594153 3.1224594153 3.1224594153 3.1078652246 3.0932710339 3.0932710339 
3.1078652246 3.1078652246 3.1224594153 3.1224594153 3.1224594153 3.1078652246 3.0932710339 3.0932710339 3.1078652246 
3.1224594153 3.1224594153 3.1224594153 3.1078652246 3.0932710339 3.0932710339 3.0786768432 3.0786768432 3.0786768432 
3.0932710339 3.1078652246 3.1224594153 3.1224594153 3.1224594153 3.1078652246 3.1078652246 3.0932710339 3.0786768432 
3.0786768432 3.0786768432 3.0786768432 3.0932710339 3.1078652246 3.1224594153 3.1224594153 3.1078652246 3.0932710339 
3.0786768432 3.0786768432 3.0786768432 3.0786768432 3.0786768432 3.0786768432 3.0786768432 3.0786768432 3.0786768432 
3.0786768432 3.0786768432 3.0932710339 3.1078652246 3.1224594153 3.1224594153 3.1224594153 3.1078652246 3.0932710339 
3.0786768432 3.0786768432 3.0786768432 3.0786768432 3.0786768432 3.0786768432 3.0786768432 3.0786768432 3.0786768432 
3.0932710339 3.0932710339 3.1078652246 3.1224594153 3.1224594153 3.1224594153 3.1078652246 3.0932710339 3.0786768432 
3.0786768432 3.0786768432 3.0786768432 3.0786768432 3.0932710339 3.1078652246 3.1224594153 3.1224594153 3.1078652246 
3.0932710339 3.0786768432 3.0786768432 3.0786768432 3.0786768432 3.0786768432 3.0786768432 3.0786768432 3.0932710339 
3.1078652246 3.1224594153 3.1224594153 3.1224594153 3.1078652246 3.1078652246 3.0932710339 3.0786768432 3.0786768432 
3.0786768432 3.0786768432 3.0786768432 3.0932710339 3.1078652246 3.1224594153 3.1224594153 3.1224594153 3.1078652246 
3.0932710339 3.0786768432 3.0786768432 3.0786768432 3.0786768432 3.0786768432 3.0786768432 3.0932710339 3.1078652246 
3.1078652246 3.1224594153 3.137053606 3.137053606 3.137053606 3.1224594153 3.1078652246 3.0932710339 3.0786768432 
3.0786768432 3.0786768432 3.0786768432 3.0786768432 3.0932710339 3.1078652246 3.1224594153 3.137053606 3.137053606 
3.137053606 3.137053606 3.1224594153 3.1078652246 3.0932710339 3.0786768432 3.0786768432 3.0786768432 3.0786768432 
3.0786768432 3.0786768432 3.0932710339 3.1078652246 3.1224594153 3.137053606 3.137053606 3.137053606 3.137053606 
3.1224594153 3.1224594153 3.1078652246 3.0932710339 3.0786768432 3.0786768432 3.0786768432 3.0786768432 3.0786768432 
3.0786768432 3.0786768432 3.0932710339 3.1078652246 3.1224594153 3.1224594153 3.137053606 3.137053606 3.137053606 
3.1224594153 3.1078652246 3.0932710339 3.0786768432 3.0786768432 3.0786768432 3.0786768432 3.0786768432 3.0932710339 
3.1078652246 3.1224594153 3.137053606 3.137053606 3.137053606 3.1224594153 3.1078652246 3.1078652246 3.0932710339 
3.0786768432 3.0786768432 3.0786768432 3.0786768432 3.0786768432 3.0932710339 3.1078652246 3.1224594153 3.137053606 
3.137053606 3.137053606 3.137053606 3.1224594153 3.1078652246 3.0932710339 3.0786768432 3.0786768432 3.0786768432 
3.0786768432 3.0786768432 3.0932710339 3.1078652246 3.1224594153 3.137053606 3.137053606 3.1224594153 3.1224594153 
3.1078652246 3.0932710339 3.0786768432 3.0786768432 3.0786768432 3.0786768432 3.0786768432 3.0786768432 3.0932710339 
3.1078652246 3.1224594153 3.137053606 3.137053606 3.1224594153 3.1078652246 3.0932710339 3.0786768432 3.0786768432 
3.0786768432 3.0786768432 3.0786768432 3.0932710339 3.1078652246 3.1224594153 3.1224594153 3.137053606 3.137053606 
3.137053606 3.1224594153 3.1078652246 3.0932710339 3.0786768432 3.0786768432 3.0786768432 3.0786768432 3.0786768432 
3.0932710339 3.1078652246 3.1224594153 3.137053606 3.137053606 3.137053606 3.1224594153 3.1078652246 3.0932710339 
3.0786768432 3.0786768432 3.0786768432 3.0786768432 3.0786768432 3.0932710339 3.1078652246 3.1224594153 3.137053606 
3.137053606 3.1224594153 3.1078652246 3.0932710339 3.0786768432 3.0786768432 3.0786768432 3.0786768432 3.0786768432 
3.0932710339 3.1078652246 3.1224594153 3.137053606 3.137053606 3.1516477967 3.1516477967 3.1516477967 3.137053606 
3.1224594153 3.1224594153 3.1078652246 3.0932710339 3.0786768432 3.0786768432 3.0786768432 3.0786768432 3.0786768432 
3.0932710339 3.1078652246 3.1078652246 3.1224594153 3.137053606 3.1516477967 3.1516477967 3.1516477967 3.137053606 
3.137053606 3.1224594153 3.1078652246 3.1078652246 3.0932710339 3.0786768432 3.0786768432 3.0786768432 3.0786768432 
3.0932710339 3.1078652246 3.1224594153 3.1224594153 3.137053606 3.1516477967 3.1516477967 3.1516477967 3.1516477967 
3.1516477967 3.137053606 3.1224594153 3.1078652246 3.0932710339 3.0786768432 3.0786768432 3.0786768432 3.0786768432 
3.0932710339 3.0932710339 3.1078652246 3.1224594153 3.137053606 3.137053606 3.1516477967 3.1516477967 3.1516477967 
3.137053606 3.1224594153 3.1078652246 3.0932710339 3.0786768432 3.0786768432 3.0786768432 3.0786768432 3.0786768432 
3.0932710339 3.1078652246 3.1224594153 3.137053606 3.1516477967 3.1516477967 3.1516477967 3.137053606 3.1224594153 
3.1078652246 3.0932710339 3.0786768432 3.0786768432 3.0786768432 3.0786768432 3.0786768432 3.0640826525 3.0640826525 
3.0640826525 3.0640826525 3.0640826525 3.0640826525 3.0786768432 3.0932710339 3.1078652246 3.1224594153 3.137053606 
3.1516477967 3.1516477967 3.1516477967 3.1516477967 3.137053606 3.1224594153 3.1078652246 3.0932710339 3.0786768432 
3.0786768432 3.0786768432 3.0640826525 3.0640826525 3.0640826525 3.0640826525 3.0640826525 3.0786768432 3.0932710339 
3.1078652246 3.1224594153 3.137053606 3.137053606 3.1516477967 3.1516477967 3.137053606 3.137053606 3.1224594153 
3.1078652246 3.0932710339 3.0786768432 3.0786768432 3.0786768432 3.0786768432 3.0640826525 3.0640826525 3.0640826525 
3.0786768432 3.0932710339 3.1078652246 3.1224594153 3.1224594153 3.137053606 3.1516477967 3.1516477967 3.137053606 
3.1224594153 3.1078652246 3.0932710339 3.0786768432 3.0786768432 3.0786768432 3.0640826525 3.0640826525 3.0640826525 
3.0786768432 3.0932710339 3.1078652246 3.1224594153 3.137053606 3.1516477967 3.1516477967 3.1516477967 3.137053606 
3.1224594153 3.1078652246 3.0932710339 3.0786768432 3.0786768432 3.0786768432 3.0640826525 3.0640826525 3.0640826525 
3.0786768432 3.0932710339 3.0932710339 3.1078652246 3.1224594153 3.137053606 3.1516477967 3.1516477967 3.137053606 
3.1224594153 3.1078652246 3.0932710339 3.0786768432 3.0786768432 3.0786768432 3.0786768432 3.0786768432 3.0640826525 
3.0640826525 3.0786768432 3.0932710339 3.1078652246 3.1224594153 3.137053606 3.137053606 3.1516477967 3.1516477967 
3.1516477967 3.137053606 3.1224594153 3.1078652246 3.0932710339 3.0786768432 3.0786768432 3.0786768432 3.0640826525 
3.0640826525 3.0786768432 3.0932710339 3.0932710339 3.1078652246 3.1224594153 3.137053606 3.1516477967 3.1662419875 
3.1662419875 3.1662419875 3.1662419875 3.1662419875 3.1516477967 3.137053606 3.1224594153 3.1078652246 3.1078652246 
3.0932710339 3.0786768432 3.0786768432 3.0786768432 3.0786768432 3.0786768432 3.0640826525 3.0494884618 3.0494884618 
3.0494884618 3.0494884618 3.0494884618 3.0640826525 3.0786768432 3.0786768432 3.0932710339 3.1078652246 3.1078652246 
3.1224594153 3.1224594153 3.137053606 3.1516477967 3.1516477967 3.1662419875 3.1662419875 3.1662419875 3.1516477967 
3.137053606 3.1224594153 3.1078652246 3.0932710339 3.0786768432 3.0786768432 3.0786768432 3.0786768432 3.0786768432 
3.0786768432 3.0786768432 3.0786768432 3.0640826525 3.0640826525 3.0494884618 3.0494884618 3.0494884618 3.0640826525 
3.0640826525 3.0786768432 3.0932710339 3.0932710339 3.1078652246 3.1224594153 3.137053606 3.1516477967 3.1662419875 
3.1662419875 3.1662419875 3.1662419875 3.1516477967 3.137053606 3.1224594153 3.1078652246 3.0932710339 3.0932710339 
3.0786768432 3.0640826525 3.0640826525 3.0640826525 3.0786768432 3.0786768432 3.0640826525 3.0494884618 3.0494884618 
3.0494884618 3.0640826525 3.0786768432 3.0932710339 3.1078652246 3.1224594153 3.137053606 3.137053606 3.1516477967 
3.1662419875 3.1662419875 3.1516477967 3.137053606 3.1224594153 3.1078652246 3.0932710339 3.0786768432 3.0786768432 
3.0640826525 3.0640826525 3.0640826525 3.0640826525 3.0786768432 3.0786768432 3.0786768432 3.0640826525 3.0494884618 
3.0494884618 3.0494884618 3.0640826525 3.0786768432 3.0932710339 3.1078652246 3.1224594153 3.137053606 3.1516477967 
3.1516477967 3.1662419875 3.1662419875 3.1662419875 3.1516477967 3.137053606 3.137053606 3.1224594153 3.1078652246 
3.0932710339 3.0786768432 3.0640826525 3.0640826525 3.0640826525 3.0640826525 3.0786768432 3.0786768432 3.0640826525 
3.0494884618 3.0348942711 3.0348942711 3.0348942711 3.0348942711 3.0494884618 3.0640826525 3.0786768432 3.0932710339 
3.1078652246 3.1224594153 3.137053606 3.1516477967 3.1662419875 2.9619233175 2.9619233175 2.9765175082 2.9765175082 
2.991111699 2.991111699 3.0057058897 3.0057058897 3.0203000804 3.0203000804 3.0348942711 3.0348942711 3.0494884618 
3.0494884618 3.0640826525 3.0640826525 3.0786768432 3.0786768432 3.0932710339 3.0932710339 3.1078652246 3.1078652246 
3.1224594153 3.1224594153 3.137053606 3.137053606 3.1516477967 3.1516477967 3.1662419875 3.1662419875 2.9619233175 
2.9765175082 2.991111699 3.0057058897 3.0203000804 3.0348942711 3.0494884618 3.0640826525 3.0786768432 3.0932710339 
3.1078652246 3.1224594153 3.137053606 3.1516477967 3.1662419875 2.9619233175 2.9765175082 2.991111699 3.0057058897 
3.0203000804 3.0348942711 3.0494884618 3.0640826525 3.0786768432 3.0932710339 3.1078652246 3.1224594153 3.137053606 
3.1516477967 3.1662419875 2.9619233175 2.9765175082 2.991111699 3.0057058897 3.0203000804 3.0348942711 3.0494884618 
3.0640826525 3.0786768432 3.0932710339 3.1078652246 3.1224594153 3.137053606 3.1516477967 3.1662419875 2.9619233175 
2.9765175082 2.991111699 3.0057058897 3.0203000804 3.0348942711 3.0494884618 3.0640826525 3.0786768432 3.0932710339 
3.1078652246 3.1224594153 3.137053606 3.1516477967 3.1662419875 2.9619233175 2.9765175082 2.991111699 3.0057058897 
3.0203000804 3.0348942711 3.0494884618 3.0640826525 3.0786768432 3.0932710339 3.1078652246 3.1224594153 3.137053606 
3.1516477967 3.1662419875 2.9619233175 2.9765175082 2.991111699 3.0057058897 3.0203000804 3.0348942711 3.0494884618 
3.0640826525 3.0786768432 3.0932710339 3.1078652246 3.1224594153 3.137053606 3.1516477967 2.9619233175 2.9765175082 
2.991111699 3.0057058897 3.0203000804 3.0348942711 3.0494884618 3.0640826525 3.0786768432 3.0932710339 3.1078652246 
3.1224594153 3.137053606 3.1516477967 2.9619233175 2.9765175082 2.991111699 3.0057058897 3.0203000804 3.0348942711 
3.0494884618 3.0640826525 3.0786768432 3.0932710339 3.1078652246 3.1224594153 3.137053606 3.1516477967 3.1516477967 
3.137053606 3.1224594153 3.1078652246 3.0932710339 3.0786768432 3.0640826525 3.0640826525 3.0640826525 3.0786768432 
3.0786768432 3.0786768432 3.0640826525 3.0494884618 3.0348942711 3.0348942711 3.0348942711 3.0494884618 3.0494884618 
3.0640826525 3.0786768432 3.0932710339 3.1078652246 3.1224594153 3.1224594153 2.9619233175 2.9619233175 2.9765175082 
2.9765175082 2.991111699 2.991111699 3.0057058897 3.0057058897 3.0203000804 3.0203000804 3.0348942711 3.0348942711 
3.0494884618 3.0494884618 3.0640826525 3.0640826525 3.0786768432 3.0786768432 3.0932710339 3.0932710339 3.1078652246 
3.1078652246 3.1224594153 3.1224594153 3.137053606 2.9619233175 2.9765175082 2.991111699 3.0057058897 3.0203000804 
3.0348942711 3.0494884618 3.0640826525 3.0786768432 3.0932710339 3.1078652246 3.1224594153 3.137053606 3.1516477967 
2.9619233175 2.9765175082 2.991111699 3.0057058897 3.0203000804 3.0348942711 3.0494884618 3.0640826525 3.0786768432 
3.0932710339 3.1078652246 3.1224594153 3.137053606 3.1516477967 2.9619233175 2.9765175082 2.991111699 3.0057058897 
3.0203000804 3.0348942711 3.0494884618 3.0640826525 3.0786768432 3.0932710339 3.1078652246 3.1224594153 3.137053606 
3.1516477967 2.9619233175 2.9765175082 2.991111699 3.0057058897 3.0203000804 3.0348942711 3.0494884618 3.0640826525 
3.0786768432 3.0932710339 3.1078652246 3.1224594153 3.137053606 3.1516477967 3.1662419875 2.9619233175 2.9765175082 
2.991111699 3.0057058897 3.0203000804 3.0348942711 3.0494884618 3.0640826525 3.0786768432 3.0932710339 3.1078652246 
3.1224594153 3.137053606 3.1516477967 2.9619233175 2.9765175082 2.991111699 3.0057058897 3.0203000804 3.0348942711 
3.0494884618 3.0640826525 3.0786768432 3.0932710339 3.1078652246 3.1224594153 3.137053606 2.9619233175 2.9765175082 
2.991111699 3.0057058897 3.0203000804 3.0348942711 3.0494884618 3.0640826525 3.0786768432 3.0932710339 3.1078652246 
3.1224594153 3.137053606 2.9619233175 2.9765175082 2.991111699 3.0057058897 3.0203000804 3.0348942711 3.0494884618 
3.0640826525 3.0786768432 3.0932710339 3.1078652246 3.1224594153 3.137053606 2.9619233175 2.9765175082 2.991111699 
3.0057058897 3.0203000804 3.0348942711 3.0494884618 3.0640826525 3.0786768432 3.0932710339 3.1078652246 3.1224594153 
2.9619233175 2.9765175082 2.991111699 3.0057058897 3.0203000804 3.0348942711 3.0494884618 3.0640826525 3.0786768432 