# vtk DataFile Version 4.2
vtk output
ASCII
DATASET POLYDATA
POINTS 7063 float
1572.54 -3247.15 0 1590.85 -3253.98 0 1605.28 -3247.15 0 
1549.5 -3230.15 0 1553.85 -3237.33 0 1627.85 -3236.47 0 
1641.22 -3230.15 0 1539.19 -3213.15 0 1664.86 -3218.96 0 
1677.16 -3213.14 0 1528.88 -3196.15 0 1701.86 -3201.46 0 
1713.1 -3196.14 0 1518.58 -3179.15 0 1738.86 -3183.95 0 
1749.03 -3179.14 0 1508.27 -3162.15 0 1516.85 -3176.31 0 
1775.86 -3166.45 0 1784.97 -3162.14 0 1497.96 -3145.14 0 
1812.86 -3148.94 0 1820.91 -3145.14 0 1487.65 -3128.14 0 
1849.87 -3131.44 0 1856.85 -3128.13 0 1477.34 -3111.14 0 
1479.86 -3115.29 0 1886.87 -3113.93 0 1892.78 -3111.13 0 
1467.03 -3094.14 0 1923.87 -3096.42 0 1928.72 -3094.13 0 
1456.73 -3077.14 0 1960.87 -3078.92 0 1964.66 -3077.13 0 
1446.42 -3060.14 0 1997.87 -3061.41 0 2000.6 -3060.13 0 
1436.11 -3043.14 0 1442.86 -3054.27 0 2034.88 -3050.43 0 
2071.88 -3045.73 0 2093.43 -3043.12 0 1425.8 -3026.14 0 
2108.88 -3041.26 0 2145.88 -3036.79 0 2182.88 -3032.32 0 
2219.88 -3027.85 0 2234.24 -3026.12 0 1415.49 -3009.14 0 
2256.88 -3023.38 0 2293.88 -3018.91 0 2300.84 -3009.11 0 
1405.19 -2992.14 0 1405.86 -2993.25 0 2307.5 -2992.11 0 
1394.88 -2975.14 0 2311.09 -2975.11 0 1384.57 -2958.14 0 
2314.67 -2958.11 0 1374.26 -2941.14 0 2318.26 -2941.11 0 
1363.95 -2924.14 0 1368.86 -2932.23 0 2321.85 -2924.11 0 
1335.16 -2907.14 0 2325.43 -2907.11 0 1291.26 -2890.14 0 
1294.86 -2891.53 0 1331.87 -2905.86 0 2329.02 -2890.11 0 
1247.36 -2873.14 0 1257.86 -2877.2 0 2330.89 -2881.21 0 
2332.6 -2873.11 0 1203.46 -2856.14 0 1220.86 -2862.87 0 
2336.19 -2856.1 0 1159.57 -2839.14 0 1183.86 -2848.55 0 
2339.78 -2839.1 0 1115.67 -2822.14 0 1146.86 -2834.22 0 
2343.36 -2822.1 0 1071.77 -2805.14 0 1072.86 -2805.56 0 
1109.86 -2819.89 0 2346.95 -2805.1 0 1031.81 -2788.14 0 
1035.86 -2790.8 0 2350.53 -2788.1 0 1009.75 -2771.14 0 
2354.12 -2771.1 0 987.689 -2754.14 0 998.865 -2762.75 0 
2357.7 -2754.1 0 965.629 -2737.14 0 2361.29 -2737.1 0 
955.081 -2720.13 0 961.865 -2734.23 0 2364.88 -2720.1 0 
947.092 -2703.13 0 2367.9 -2705.74 0 2368.46 -2703.09 0 
939.304 -2686.13 0 2372.05 -2686.09 0 931.71 -2669.13 0 
2375.63 -2669.09 0 924.378 -2652.13 0 924.869 -2653.45 0 
2379.22 -2652.09 0 918.029 -2635.13 0 2382.81 -2635.09 0 
911.681 -2618.13 0 2386.39 -2618.09 0 905.332 -2601.13 0 
2389.98 -2601.09 0 898.983 -2584.13 0 2393.56 -2584.09 0 
892.635 -2567.13 0 2397.15 -2567.09 0 886.286 -2550.13 0 
887.874 -2554.38 0 2400.74 -2550.08 0 879.937 -2533.13 0 
2404.32 -2533.08 0 873.589 -2516.12 0 2404.92 -2530.27 0 
2407.91 -2516.08 0 867.24 -2499.12 0 2411.49 -2499.08 0 
860.891 -2482.12 0 2415.08 -2482.08 0 854.543 -2465.12 0 
2418.67 -2465.08 0 848.194 -2448.12 0 850.879 -2455.31 0 
2422.25 -2448.08 0 841.845 -2431.12 0 2425.84 -2431.08 0 
835.497 -2414.12 0 2429.42 -2414.08 0 829.148 -2397.12 0 
2433.01 -2397.08 0 822.799 -2380.12 0 2436.6 -2380.07 0 
816.451 -2363.12 0 2440.18 -2363.07 0 810.102 -2346.12 0 
813.883 -2356.24 0 2441.93 -2354.8 0 2443.77 -2346.07 0 
803.753 -2329.12 0 2447.35 -2329.07 0 797.404 -2312.11 0 
2450.94 -2312.07 0 791.056 -2295.11 0 2454.53 -2295.07 0 
784.707 -2278.11 0 2458.11 -2278.07 0 778.358 -2261.11 0 
2461.7 -2261.07 0 772.01 -2244.11 0 776.888 -2257.17 0 
2465.28 -2244.07 0 765.661 -2227.11 0 2468.87 -2227.06 0 
759.312 -2210.11 0 2477.23 -2210.06 0 752.964 -2193.11 0 
2478.94 -2207.77 0 2489.89 -2193.06 0 746.615 -2176.11 0 
2502.54 -2176.06 0 740.266 -2159.11 0 2515.2 -2159.06 0 
737.979 -2142.11 0 739.893 -2156.57 0 2515.94 -2158.06 0 
2527.85 -2142.06 0 735.776 -2125.1 0 2540.51 -2125.06 0 
733.573 -2108.1 0 2543.43 -2108.06 0 731.37 -2091.1 0 
2544.46 -2091.05 0 729.167 -2074.1 0 2544.82 -2074.05 0 
726.964 -2057.1 0 2543.87 -2057.05 0 724.761 -2040.1 0 
2542.93 -2040.05 0 722.558 -2023.1 0 2541.99 -2023.05 0 
720.355 -2006.1 0 2541.05 -2006.05 0 718.152 -1989.1 0 
2540.1 -1989.05 0 715.949 -1972.1 0 2539.16 -1972.05 0 
713.746 -1955.1 0 2538.22 -1955.05 0 711.543 -1938.09 0 
2537.28 -1938.05 0 709.34 -1921.09 0 2536.33 -1921.04 0 
707.137 -1904.09 0 2535.39 -1904.04 0 704.934 -1887.09 0 
2534.45 -1887.04 0 702.731 -1870.09 0 702.909 -1871.46 0 
2533.51 -1870.04 0 700.528 -1853.09 0 2532.56 -1853.04 0 
698.325 -1836.09 0 2531.62 -1836.04 0 696.122 -1819.09 0 
2530.68 -1819.04 0 693.919 -1802.09 0 2529.73 -1802.04 0 
691.716 -1785.09 0 2528.79 -1785.04 0 689.504 -1768.09 0 
2527.85 -1768.04 0 687.762 -1751.08 0 2526.91 -1751.03 0 
686.12 -1734.08 0 2525.96 -1734.03 0 684.57 -1717.08 0 
2525.02 -1717.03 0 681.142 -1700.08 0 2524.08 -1700.03 0 
677.923 -1683.08 0 2523.14 -1683.03 0 675.199 -1666.08 0 
2522.19 -1666.03 0 673.202 -1649.08 0 2521.25 -1649.03 0 
670.894 -1632.08 0 2520.31 -1632.03 0 667.285 -1615.08 0 
2519.36 -1615.03 0 -481.108 -1610.65 0 -505.662 -1598.11 0 
-444.107 -1612.64 0 -407.105 -1601.59 0 -395.449 -1598.1 0 
662.951 -1598.08 0 665.923 -1608.67 0 2518.42 -1598.03 0 
-518.108 -1591.75 0 -538.942 -1581.11 0 -370.104 -1590.53 0 
-338.528 -1581.1 0 658.905 -1581.08 0 2517.48 -1581.03 0 
-555.107 -1572.85 0 -572.221 -1564.11 0 -333.102 -1579.48 0 
-296.1 -1568.43 0 -281.607 -1564.1 0 655.551 -1564.07 0 
2517.94 -1564.02 0 -592.107 -1553.95 0 -605.501 -1547.11 0 
-259.099 -1557.38 0 -224.687 -1547.1 0 652.726 -1547.07 0 
2519.1 -1547.02 0 -629.107 -1535.05 0 -638.781 -1530.11 0 
-222.097 -1546.32 0 -185.095 -1535.27 0 -167.766 -1530.09 0 
649.235 -1530.07 0 2520.28 -1530.02 0 -666.107 -1516.15 0 
-672.061 -1513.11 0 -148.094 -1524.22 0 -111.092 -1513.16 0 
-110.87 -1513.09 0 645.625 -1513.07 0 1323.15 -1513.05 0 
1331.95 -1516.96 0 1368.95 -1517.92 0 1405.95 -1518.29 0 
1442.95 -1518.67 0 1479.95 -1519.04 0 1516.95 -1519.42 0 
1553.95 -1519.79 0 1590.95 -1513.53 0 1591.51 -1513.05 0 
2521.45 -1513.02 0 -703.107 -1497.25 0 -705.34 -1496.11 0 
-74.0903 -1501.65 0 -68.3961 -1496.09 0 642.015 -1496.07 0 
1289.23 -1496.05 0 1294.95 -1498.92 0 1610.99 -1496.04 0 
2522.63 -1496.02 0 -738.62 -1479.11 0 -51.9396 -1479.09 0 
638.405 -1479.07 0 1256.58 -1479.05 0 1257.95 -1480.37 0 
1627.96 -1481.24 0 1630.48 -1479.04 0 2523.81 -1479.02 0 
-740.107 -1478.02 0 -752.628 -1462.11 0 -37.0874 -1468.06 0 
-33.1302 -1462.09 0 634.795 -1462.07 0 1236.99 -1462.05 0 
1649.96 -1462.04 0 2524.99 -1462.02 0 -764.357 -1445.11 0 
-20.9796 -1445.09 0 631.186 -1445.07 0 1216.02 -1445.05 0 
1220.95 -1450.4 0 1664.96 -1448.96 0 1669.64 -1445.04 0 
2526.16 -1445.02 0 -776.086 -1428.1 0 -8.55505 -1428.08 0 
627.576 -1428.07 0 628.933 -1434.46 0 1200.37 -1428.05 0 
1689.69 -1428.04 0 2527.34 -1428.02 0 -777.105 -1426.63 0 
-787.815 -1411.1 0 -0.0833181 -1416.49 0 3.8695 -1411.08 0 
623.966 -1411.07 0 1184.71 -1411.05 0 1701.96 -1417.46 0 
1710.19 -1411.04 0 2528.52 -1411.01 0 -799.544 -1394.1 0 
16.294 -1394.08 0 620.356 -1394.07 0 1169.06 -1394.05 0 
1183.95 -1410.22 0 1731.98 -1394.04 0 2529.69 -1394.01 0 
-811.273 -1377.1 0 28.7187 -1377.08 0 616.746 -1377.06 0 
1153.4 -1377.05 0 1738.97 -1388.58 0 1753.77 -1377.03 0 
2530.87 -1377.01 0 -814.103 -1373 0 -823.003 -1360.1 0 
36.9207 -1365.86 0 41.1432 -1360.08 0 613.136 -1360.06 0 
1137.36 -1360.05 0 1146.95 -1370.05 0 1770.38 -1360.03 0 
2529.94 -1360.01 0 -834.732 -1343.1 0 53.5678 -1343.08 0 
609.526 -1343.06 0 1118.55 -1343.05 0 1775.97 -1351.87 0 
1779.56 -1343.03 0 2529.11 -1343.01 0 -846.461 -1326.1 0 
65.9923 -1326.08 0 605.916 -1326.06 0 1095.69 -1326.05 0 
1109.95 -1336.24 0 1786.47 -1326.03 0 2527.75 -1326.01 0 
-851.101 -1319.38 0 -858.19 -1309.1 0 73.9246 -1315.22 0 
78.417 -1309.07 0 600.578 -1309.06 0 1071.89 -1309.05 0 
1072.95 -1309.81 0 1793.38 -1309.03 0 2524.39 -1309.01 0 
-869.919 -1292.1 0 90.8415 -1292.07 0 591.328 -1292.06 0 
591.94 -1293.18 0 1048.09 -1292.05 0 1800.29 -1292.03 0 
2521.03 -1292.01 0 -881.648 -1275.1 0 103.266 -1275.07 0 
583.023 -1275.06 0 1024.28 -1275.05 0 1035.95 -1283.38 0 
1807.2 -1275.03 0 2517.67 -1275.01 0 -888.098 -1265.75 0 
-893.377 -1258.1 0 110.929 -1264.59 0 115.691 -1258.07 0 
576.276 -1258.06 0 1000.48 -1258.05 0 1812.97 -1261.72 0 
1814.56 -1258.03 0 2515.99 -1266.52 0 2514.31 -1258.01 0 
-905.106 -1241.1 0 128.115 -1241.07 0 570.81 -1241.06 0 
985.687 -1241.05 0 998.953 -1256.96 0 1825.99 -1241.02 0 
2510.95 -1241.01 0 -916.835 -1224.1 0 140.54 -1224.07 0 
567.009 -1224.06 0 971.443 -1224.05 0 1837.44 -1224.02 0 
2507.59 -1224 0 -925.096 -1212.12 0 -928.565 -1207.1 0 
147.861 -1207.07 0 563.208 -1207.06 0 958.112 -1207.05 0 
961.955 -1212.77 0 1848.88 -1207.02 0 2504.23 -1207 0 
-940.294 -1190.1 0 147.933 -1206.67 0 149.878 -1190.07 0 
559.408 -1190.05 0 946.695 -1190.04 0 1849.98 -1205.39 0 
1860.32 -1190.02 0 2500.87 -1190 0 -952.023 -1173.09 0 
151.869 -1173.06 0 555.607 -1173.05 0 935.278 -1173.04 0 
1871.77 -1173.02 0 2497.6 -1173 0 -962.094 -1158.5 0 
-963.752 -1156.09 0 153.861 -1156.06 0 551.763 -1156.05 0 
554.946 -1170.1 0 924.053 -1156.04 0 924.957 -1157.57 0 
1883.21 -1156.02 0 2495.86 -1156 0 -975.481 -1139.09 0 
155.853 -1139.06 0 547.915 -1139.05 0 915.346 -1139.04 0 
1886.98 -1150.41 0 1893.9 -1139.02 0 2495.05 -1139 0 
-988.801 -1122.09 0 157.844 -1122.06 0 544.074 -1122.05 0 
906.639 -1122.04 0 1903.01 -1122.01 0 2494.69 -1122 0 
-999.092 -1112.86 0 -1007.79 -1105.09 0 159.836 -1105.06 0 
540.24 -1105.05 0 897.933 -1105.04 0 1910.92 -1105.01 0 
2494.32 -1105 0 -1020.51 -1088.09 0 161.828 -1088.06 0 
536.412 -1088.05 0 889.226 -1088.04 0 1917.62 -1088.01 0 
2493.96 -1088 0 -1026.61 -1071.09 0 163.893 -1071.06 0 
532.59 -1071.05 0 880.519 -1071.04 0 887.96 -1085.57 0 
1923.98 -1071.01 0 2493.6 -1071 0 -1029.49 -1054.09 0 
170.758 -1054.06 0 528.775 -1054.05 0 870.592 -1054.04 0 
1923.99 -1070.98 0 1930.34 -1054.01 0 2493.24 -1053.99 0 
-1031.74 -1037.09 0 177.674 -1037.06 0 524.966 -1037.05 0 
856.969 -1037.04 0 1936.7 -1037.01 0 2492.87 -1036.99 0 
-1034 -1020.09 0 184.59 -1020.05 0 521.164 -1020.05 0 
842.849 -1020.04 0 850.962 -1029.81 0 1943.07 -1020.01 0 
2492.51 -1019.99 0 -1036.09 -1004.36 0 -1036.27 -1003.09 0 
[...]
POINT_DATA 7063
SCALARS Pressure double
LOOKUP_TABLE default
3.0932710339 3.0932710339 3.0932710339 3.0932710339 3.0932710339 3.0932710339 3.0932710339 3.0932710339 3.0932710339 
3.0932710339 3.0932710339 3.0932710339 3.0932710339 3.0932710339 3.0932710339 3.0932710339 3.0932710339 3.0932710339 
3.0932710339 3.0932710339 3.0932710339 3.0932710339 3.0932710339 3.0932710339 3.0932710339 3.0932710339 3.0932710339 
3.0932710339 3.0932710339 3.0932710339 3.0932710339 3.0932710339 3.0932710339 3.0932710339 3.0932710339 3.0932710339 
3.0932710339 3.0932710339 3.0932710339 3.0932710339 3.0932710339 3.0932710339 3.0932710339 3.0932710339 3.0932710339 
3.0932710339 3.0932710339 3.0932710339 3.0932710339 3.0932710339 3.0932710339 3.0932710339 3.0932710339 3.0932710339 
3.0932710339 3.0932710339 3.0932710339 3.0932710339 3.0932710339 3.0932710339 3.0932710339 3.0932710339 3.0932710339 
3.0932710339 3.0932710339 3.0932710339 3.0932710339 3.0932710339 3.0932710339 3.0932710339 3.0932710339 3.0932710339 
3.0932710339 3.0932710339 3.0932710339 3.0932710339 3.0932710339 3.0932710339 3.0932710339 3.0932710339 3.0932710339 
3.0932710339 3.0932710339 3.0932710339 3.0932710339 3.0932710339 3.0932710339 3.0932710339 3.0932710339 3.0932710339 
3.0932710339 3.0932710339 3.0932710339 3.0932710339 3.0932710339 3.0932710339 3.0932710339 3.0932710339 3.0932710339 
3.0932710339 3.0932710339 3.0932710339 3.0932710339 3.0932710339 3.0932710339 3.0932710339 3.0932710339 3.0932710339 
3.0932710339 3.0932710339 3.0932710339 3.0932710339 3.0932710339 3.0932710339 3.0932710339 3.0932710339 3.0932710339 
3.0932710339 3.0932710339 3.0932710339 3.0932710339 3.0932710339 3.0932710339 3.0932710339 3.0932710339 3.0932710339 
3.0932710339 3.0932710339 3.0932710339 3.0932710339 3.0932710339 3.0932710339 3.0932710339 3.0932710339 3.0932710339 
3.0932710339 3.0932710339 3.0932710339 3.0932710339 3.0932710339 3.0932710339 3.0932710339 3.0932710339 3.0932710339 
3.0932710339 3.0932710339 3.0932710339 3.0932710339 3.0932710339 3.0932710339 3.0932710339 3.0932710339 3.0932710339 
3.0932710339 3.0932710339 3.0932710339 3.0932710339 3.0932710339 3.0932710339 3.0932710339 3.0932710339 3.0932710339 
3.0932710339 3.0932710339 3.0932710339 3.0932710339 3.0932710339 3.0932710339 3.0932710339 3.0932710339 3.0932710339 
3.0932710339 3.0932710339 3.0932710339 3.0932710339 3.0932710339 3.0932710339 3.0932710339 3.0932710339 3.0932710339 
3.0932710339 3.0932710339 3.0932710339 3.0932710339 3.0932710339 3.0932710339 3.0932710339 3.0932710339 3.0932710339 
3.0932710339 3.0932710339 3.0932710339 3.0932710339 3.0932710339 3.0932710339 3.0932710339 3.0932710339 3.0932710339 
3.0932710339 3.0932710339 3.0932710339 3.0932710339 3.0932710339 3.0932710339 3.0932710339 3.0932710339 3.0932710339 
3.0932710339 3.0932710339 3.0932710339 3.0932710339 3.0932710339 3.0932710339 3.0932710339 3.0932710339 3.0932710339 
3.0932710339 3.0932710339 3.0932710339 3.0932710339 3.0932710339 3.0932710339 3.0932710339 3.0932710339 3.0932710339 
3.0932710339 3.0932710339 3.0932710339 3.0932710339 3.0932710339 3.0932710339 3.0932710339 3.0932710339 3.0932710339 
3.0932710339 3.0932710339 3.0932710339 3.0932710339 3.0932710339 3.0932710339 3.0932710339 3.0932710339 3.0932710339 
3.0932710339 3.0786768432 3.0786768432 3.0786768432 3.0786768432 3.0786768432 3.0932710339 3.0932710339 3.0932710339 
3.0786768432 3.0786768432 3.0786768432 3.0786768432 3.0932710339 3.0932710339 3.0786768432 3.0786768432 3.0786768432 
3.0786768432 3.0786768432 3.0932710339 3.0932710339 3.0786768432 3.0786768432 3.0786768432 3.0786768432 3.0932710339 
3.0932710339 3.0786768432 3.0786768432 3.0786768432 3.0786768432 3.0786768432 3.0932710339 3.0932710339 3.0786768432 
3.0786768432 3.0786768432 3.0786768432 3.0786768432 3.0932710339 3.1078652246 3.1078652246 3.1078652246 3.1078652246 
3.1078652246 3.1078652246 3.1078652246 3.1078652246 3.1078652246 3.1078652246 3.0932710339 3.0786768432 3.0786768432 
3.0786768432 3.0786768432 3.0932710339 3.1078652246 3.1078652246 3.1078652246 3.0932710339 3.0786768432 3.0786768432 
3.0932710339 3.1078652246 3.1078652246 3.1078652246 3.1078652246 3.0932710339 3.0786768432 3.0786768432 3.0786768432 
3.0786768432 3.0932710339 3.1078652246 3.1078652246 3.0932710339 3.0786768432 3.0786768432 3.0932710339 3.1078652246 
3.1078652246 3.1078652246 3.1078652246 3.0932710339 3.0786768432 3.0786768432 3.0932710339 3.0932710339 3.1078652246 
3.1078652246 3.0932710339 3.0786768432 3.0786768432 3.0786768432 3.0786768432 3.0932710339 3.1078652246 3.1078652246 
3.1078652246 3.0932710339 3.0786768432 3.0786768432 3.0932710339 3.1078652246 3.1078652246 3.1078652246 3.0932710339 
3.0786768432 3.0786768432 3.0932710339 3.1078652246 3.1078652246 3.1078652246 3.0932710339 3.0786768432 3.0786768432 
3.0786768432 3.0786768432 3.0932710339 3.1078652246 3.1078652246 3.1078652246 3.0932710339 3.0786768432 3.0786768432 
3.0932710339 3.1078652246 3.1078652246 3.1078652246 3.0932710339 3.0786768432 3.0786768432 3.0932710339 3.1078652246 
3.1078652246 3.1078652246 3.0932710339 3.0786768432 3.0786768432 3.0786768432 3.0786768432 3.0932710339 3.1078652246 
3.1078652246 3.1078652246 3.0932710339 3.0786768432 3.0786768432 3.0932710339 3.0932710339 3.1078652246 3.1078652246 
3.0932710339 3.0786768432 3.0786768432 3.0932710339 3.1078652246 3.1078652246 3.1078652246 3.0932710339 3.0786768432 
3.0786768432 3.0786768432 3.0786768432 3.0932710339 3.1078652246 3.1078652246 3.1078652246 3.0932710339 3.0932710339 
3.0786768432 3.0786768432 3.0932710339 3.1078652246 3.1078652246 3.1078652246 3.0932710339 3.0786768432 3.0786768432 
3.0932710339 3.1078652246 3.1078652246 3.0932710339 3.0786768432 3.0786768432 3.0786768432 3.0932710339 3.1078652246 
3.1078652246 3.1078652246 3.0932710339 3.0786768432 3.0786768432 3.0786768432 3.0932710339 3.1078652246 3.1078652246 
3.1078652246 3.0932710339 3.0786768432 3.0786768432 3.0932710339 3.1078652246 3.1078652246 3.0932710339 3.0786768432 
3.0786768432 3.0786768432 3.0932710339 3.0932710339 3.1078652246 3.1078652246 3.1078652246 3.0932710339 3.0786768432 
3.0786768432 3.0932710339 3.1078652246 3.1078652246 3.1078652246 3.0932710339 3.0786768432 3.0786768432 3.0932710339 
3.1078652246 3.1078652246 3.0932710339 3.0786768432 3.0786768432 3.0786768432 3.0932710339 3.1078652246 3.1078652246 
3.0932710339 3.0786768432 3.0786768432 3.0932710339 3.1078652246 3.1078652246 3.0932710339 3.0786768432 3.0786768432 
3.0932710339 3.1078652246 3.1078652246 3.1078652246 3.0932710339 3.0786768432 3.0786768432 3.0932710339 3.1078652246 
3.1078652246 3.1078652246 3.0932710339 3.0786768432 3.0786768432 3.0932710339 3.1078652246 3.1078652246 3.0932710339 
3.0786768432 3.0786768432 3.0932710339 3.1078652246 3.1078652246 3.1078652246 3.0932710339 3.0786768432 3.0786768432 
3.0786768432 3.0786768432 3.0932710339 3.0932710339 3.1078652246 3.1078652246 3.0932710339 3.0786768432 3.0786768432 
3.0932710339 3.1078652246 3.1078652246 3.0932710339 3.0786768432 3.0786768432 3.0932710339 3.1078652246 3.1078652246 
3.1078652246 3.1078652246 3.0932710339 3.0786768432 3.0786768432 3.0932710339 3.1078652246 3.1078652246 3.0932710339 
3.0786768432 3.0786768432 3.0932710339 3.1078652246 3.1078652246 3.1078652246 3.0932710339 3.0786768432 3.0786768432 
3.0786768432 3.0932710339 3.1078652246 3.1078652246 3.0932710339 3.0786768432 3.0786768432 3.0786768432 3.0932710339 
3.1078652246 3.1078652246 3.0932710339 3.0786768432 3.0786768432 3.0932710339 3.1078652246 3.1078652246 3.0932710339 
3.0932710339 3.0786768432 3.0786768432 3.0932710339 3.0932710339 3.1078652246 3.1078652246 3.1224594153 3.1224594153 
3.1224594153 3.1224594153 3.1078652246 3.1078652246 3.0932710339 3.0786768432 3.0786768432 3.0932710339 3.1078652246 
3.1224594153 3.1224594153 3.1224594153 3.1224594153 3.1224594153 3.1224594153 3.1224594153 3.1224594153 3.1078652246 
3.0932710339 3.0786768432 3.0786768432 3.0932710339 3.1078652246 3.1224594153 3.1224594153 3.1224594153 3.1078652246 
3.0932710339 3.0786768432 3.0786768432 3.0786768432 3.0932710339 3.1078652246 3.1224594153 3.1224594153 3.1224594153 
3.1224594153 3.1078652246 3.0932710339 3.0786768432 3.0786768432 3.0932710339 3.1078652246 3.1078652246 3.1224594153 
3.1224594153 3.1224594153 3.1078652246 3.0932710339 3.0786768432 3.0786768432 3.0932710339 3.1078652246 3.1224594153 
3.1224594153 3.1224594153 3.1078652246 3.0932710339 3.0786768432 3.0786768432 3.0786768432 3.0786768432 3.0786768432 
3.0786768432 3.0932710339 3.1078652246 3.1224594153 3.1224594153 3.1224594153 3.1224594153 3.1078652246 3.0932710339 
3.0786768432 3.0786768432 3.0786768432 3.0786768432 3.0786768432 3.0640826525 3.0640826525 3.0640826525 3.0640826525 
3.0640826525 3.0640826525 3.0640826525 3.0786768432 3.0932710339 3.1078652246 3.1078652246 3.1224594153 3.1224594153 
3.1078652246 3.1078652246 3.0932710339 3.0786768432 3.0786768432 3.0786768432 3.0786768432 3.0786768432 3.0640826525 
3.0640826525 3.0640826525 3.0640826525 3.0786768432 3.0932710339 3.1078652246 3.1224594153 3.1224594153 3.1224594153 
3.1224594153 3.1078652246 3.0932710339 3.0786768432 3.0786768432 3.0786768432 3.0786768432 3.0786768432 3.0786768432 
3.0640826525 3.0640826525 3.0640826525 3.0786768432 3.0932710339 3.0932710339 3.1078652246 3.1224594153 3.1224594153 
3.1078652246 3.0932710339 3.0786768432 3.0786768432 3.0786768432 3.0786768432 3.0786768432 3.0786768432 3.0640826525 
3.0640826525 3.0640826525 3.0640826525 3.0786768432 3.0932710339 3.1078652246 3.1224594153 3.1224594153 3.1224594153 
3.1078652246 3.0932710339 3.0786768432 3.0786768432 3.0786768432 3.0786768432 3.0786768432 3.0640826525 3.0640826525 
3.0786768432 3.0932710339 3.1078652246 3.1224594153 3.1224594153 3.1224594153 3.1078652246 3.0932710339 3.0786768432 
3.0786768432 3.0786768432 3.0786768432 3.0640826525 3.0640826525 3.0640826525 3.0640826525 3.0786768432 3.0932710339 
3.1078652246 3.1078652246 3.1224594153 3.1224594153 3.1224594153 3.1078652246 3.0932710339 3.0786768432 3.0786768432 
3.0786768432 3.0786768432 3.0640826525 3.0640826525 3.0786768432 3.0932710339 3.1078652246 3.1224594153 3.1224594153 
3.1224594153 3.1078652246 3.0932710339 3.0786768432 3.0786768432 3.0786768432 3.0786768432 3.0786768432 3.0640826525 
3.0640826525 3.0786768432 3.0932710339 3.1078652246 3.1224594153 3.1224594153 3.1224594153 3.1078652246 3.0932710339 
3.0786768432 3.0786768432 3.0786768432 3.0640826525 3.0640826525 3.0640826525 3.0640826525 3.0786768432 3.0932710339 
3.1078652246 3.1224594153 3.1224594153 3.1224594153 3.1078652246 3.1078652246 3.0932710339 3.0786768432 3.0786768432 
3.0786768432 3.0786768432 3.0640826525 3.0640826525 3.0786768432 3.0932710339 3.1078652246 3.1224594153 3.1224594153 
3.1078652246 3.0932710339 3.0786768432 3.0786768432 3.0786768432 3.0640826525 3.0640826525 3.0640826525 3.0640826525 
3.0786768432 3.0932710339 3.0932710339 3.1078652246 3.1078652246 3.1224594153 3.1224594153 3.1078652246 3.0932710339 
3.0786768432 3.0786768432 3.0786768432 3.0786768432 3.0640826525 3.0640826525 3.0786768432 3.0932710339 3.1078652246 
3.1224594153 3.1224594153 3.1224594153 3.1224594153 3.1078652246 3.0932710339 3.0786768432 3.0786768432 3.0786768432 
3.0640826525 3.0640826525 3.0786768432 3.0932710339 3.1078652246 3.1224594153 3.1224594153 3.1078652246 3.0932710339 
3.0786768432 3.0786768432 3.0786768432 3.0786768432 3.0640826525 3.0640826525 3.0786768432 3.0932710339 3.1078652246 
3.1078652246 3.1224594153 3.1224594153 3.1078652246 3.0932710339 3.0786768432 3.0786768432 3.0786768432 3.0640826525 
3.0640826525 3.0786768432 3.0932710339 3.1078652246 3.1224594153 3.1224594153 3.137053606 3.137053606 3.137053606 
3.1224594153 3.1078652246 3.0932710339 3.0786768432 3.0786768432 3.0786768432 3.0786768432 3.0640826525 3.0640826525 
3.0640826525 3.0640826525 3.0786768432 3.0932710339 3.1078652246 3.1224594153 3.137053606 3.137053606 3.137053606 
3.137053606 3.1224594153 3.1224594153 3.1078652246 3.0932710339 3.0786768432 3.0786768432 3.0786768432 3.0786768432 
3.0640826525 3.0640826525 3.0786768432 3.0932710339 3.1078652246 3.1078652246 3.1224594153 3.1224594153 3.137053606 
3.137053606 3.137053606 3.137053606 3.1224594153 3.1078652246 3.0932710339 3.0786768432 3.0786768432 3.0786768432 
3.0786768432 3.0640826525 3.0640826525 3.0786768432 3.0932710339 3.1078652246 3.1224594153 3.137053606 3.137053606 
3.137053606 3.1224594153 3.1078652246 3.0932710339 3.0786768432 3.0786768432 3.0786768432 3.0640826525 3.0494884618 
3.0494884618 3.0494884618 3.0640826525 3.0786768432 3.0932710339 3.0932710339 3.1078652246 3.1224594153 3.1224594153 
3.137053606 3.137053606 3.137053606 3.1224594153 3.1078652246 3.0932710339 3.0786768432 3.0786768432 3.0786768432 
3.0786768432 3.0640826525 3.0494884618 3.0494884618 3.0494884618 3.0494884618 3.0494884618 3.0640826525 3.0786768432 
3.0932710339 3.1078652246 3.1224594153 3.137053606 3.137053606 3.137053606 3.1224594153 3.1078652246 3.0932710339 
3.0786768432 3.0786768432 3.0786768432 3.0640826525 3.0640826525 3.0494884618 3.0494884618 3.0494884618 3.0640826525 
3.0786768432 3.0932710339 3.1078652246 3.1078652246 3.1224594153 3.137053606 3.137053606 3.137053606 3.1224594153 
3.1078652246 3.0932710339 3.0932710339 3.0786768432 3.0786768432 3.0786768432 3.0640826525 3.0494884618 3.0494884618 
3.0494884618 3.0494884618 3.0640826525 3.0786768432 3.0932710339 3.1078652246 3.1224594153 3.1224594153 3.137053606 
3.137053606 3.137053606 3.1224594153 3.1078652246 3.0932710339 3.0786768432 3.0786768432 3.0786768432 3.0786768432 
3.0640826525 3.0494884618 3.0494884618 3.0640826525 3.0786768432 3.0932710339 3.1078652246 3.1224594153 3.137053606 
3.137053606 3.137053606 3.137053606 3.1224594153 3.1078652246 3.0932710339 3.0786768432 3.0786768432 3.0786768432 
3.0786768432 3.0640826525 3.0494884618 3.0494884618 3.0494884618 3.0640826525 3.0786768432 3.0932710339 3.0932710339 
3.1078652246 3.1224594153 3.137053606 3.137053606 3.1224594153 3.1078652246 3.0932710339 3.0786768432 3.0786768432 
3.0786768432 3.0640826525 3.0494884618 3.0494884618 3.0494884618 3.0640826525 3.0786768432 3.0932710339 3.1078652246 
3.1078652246 3.1224594153 3.137053606 3.137053606 3.137053606 3.137053606 3.1224594153 3.1078652246 3.0932710339 
3.0786768432 3.0786768432 3.0786768432 3.0640826525 3.0494884618 3.0494884618 3.0494884618 3.0640826525 3.0786768432 
3.0932710339 3.1078652246 3.1224594153 3.1224594153 3.137053606 3.137053606 3.1224594153 3.1224594153 3.1078652246 
3.0932710339 3.0786768432 3.0786768432 3.0786768432 3.0786768432 3.0640826525 3.0494884618 3.0494884618 3.0640826525 
3.0786768432 3.0932710339 3.1078652246 3.1224594153 3.137053606 3.137053606 3.1224594153 3.1078652246 3.0932710339 
3.0786768432 3.0786768432 3.0786768432 3.0786768432 3.0640826525 3.0494884618 3.0494884618 3.0494884618 3.0640826525 
3.0786768432 3.0932710339 3.1078652246 3.1078652246 3.1224594153 3.137053606 3.137053606 3.137053606 3.1224594153 
3.1078652246 3.0932710339 3.0786768432 3.0786768432 3.0786768432 3.0786768432 3.0786768432 3.0640826525 3.0494884618 
3.0348942711 3.0348942711 3.0348942711 3.0494884618 3.0640826525 3.0786768432 3.0932710339 3.1078652246 3.1224594153 
3.137053606 3.137053606 3.137053606 3.1224594153 3.1078652246 3.0932710339 3.0786768432 3.0786768432 3.0786768432 
3.0786768432 3.0640826525 3.0640826525 3.0494884618 3.0348942711 3.0348942711 3.0348942711 3.0494884618 3.0640826525 
3.0786768432 3.0786768432 3.0932710339 3.0932710339 3.1078652246 3.1224594153 3.1224594153 3.137053606 3.137053606 
3.137053606 3.1224594153 3.1224594153 3.1078652246 3.0932710339 3.0786768432 3.0640826525 3.0640826525 3.0640826525 
3.0640826525 3.0786768432 3.0786768432 3.0786768432 3.0786768432 3.0786768432 3.0640826525 3.0494884618 3.0348942711 
3.0348942711 3.0348942711 3.0348942711 3.0494884618 3.0494884618 3.0640826525 3.0786768432 3.0932710339 3.1078652246 
3.1224594153 3.137053606 3.137053606 3.137053606 3.1224594153 3.1078652246 3.0932710339 3.0786768432 3.0640826525 
3.0640826525 3.0640826525 3.0640826525 3.0786768432 3.0786768432 3.0786768432 3.0786768432 3.0786768432 3.0786768432 
3.0640826525 3.0494884618 3.0348942711 3.0348942711 3.0348942711 3.0348942711 3.0494884618 3.0640826525 3.0640826525 
3.0786768432 3.0932710339 3.1078652246 3.1224594153 3.137053606 3.137053606 3.1224594153 3.1078652246 3.0932710339 
3.0786768432 3.0640826525 3.0640826525 3.0640826525 3.0786768432 3.0786768432 3.0786768432 3.0786768432 3.0640826525 
3.0494884618 3.0348942711 3.0348942711 3.0494884618 3.0640826525 3.0786768432 3.0932710339 3.1078652246 3.1224594153 
3.137053606 3.137053606 3.137053606 3.1224594153 3.1078652246 3.0932710339 3.0932710339 3.0786768432 3.0786768432 
3.0640826525 3.0640826525 3.0640826525 3.0640826525 3.0786768432 3.0786768432 3.0640826525 3.0494884618 3.0348942711 
3.0348942711 3.0494884618 3.0640826525 3.0640826525 3.0786768432 3.0932710339 3.1078652246 3.1078652246 3.1224594153 
3.137053606 3.137053606 3.1224594153 3.1078652246 3.0932710339 3.0786768432 3.0640826525 3.0640826525 3.0640826525 
3.0786768432 3.0786768432 3.0786768432 3.0640826525 3.0494884618 3.0494884618 3.0348942711 3.0348942711 3.0203000804 
3.0203000804 3.0203000804 3.0203000804 3.0348942711 3.0348942711 3.0494884618 3.0640826525 3.0786768432 3.0786768432 
3.0932710339 3.1078652246 3.1224594153 2.9619233175 2.9619233175 2.9765175082 2.9765175082 2.991111699 2.991111699 
3.0057058897 3.0057058897 3.0203000804 3.0203000804 3.0348942711 3.0348942711 3.0494884618 3.0494884618 3.0640826525 
3.0640826525 3.0786768432 3.0786768432 3.0932710339 3.0932710339 3.1078652246 3.1078652246 3.1224594153 3.1224594153 
2.9619233175 2.9765175082 2.991111699 3.0057058897 3.0203000804 3.0348942711 3.0494884618 3.0640826525 3.0786768432 
3.0932710339 3.1078652246 3.1224594153 3.137053606 2.9619233175 2.9765175082 2.991111699 3.0057058897 3.0203000804 
3.0348942711 3.0494884618 3.0640826525 3.0786768432 3.0932710339 3.1078652246 3.1224594153 3.137053606 2.9619233175 
2.9765175082 2.991111699 3.0057058897 3.0203000804 3.0348942711 3.0494884618 3.0640826525 3.0786768432 3.0932710339 
3.1078652246 3.1224594153 3.137053606 2.9619233175 2.9765175082 2.991111699 3.0057058897 3.0203000804 3.0348942711 
3.0494884618 3.0640826525 3.0786768432 3.0932710339 3.1078652246 3.1224594153 3.137053606 2.9619233175 2.9765175082 
2.991111699 3.0057058897 3.0203000804 3.0348942711 3.0494884618 3.0640826525 3.0786768432 3.0932710339 3.1078652246 
3.1224594153 3.137053606 2.9619233175 2.9765175082 2.991111699 3.0057058897 3.0203000804 3.0348942711 3.0494884618 
3.0640826525 3.0786768432 3.0932710339 3.1078652246 3.1224594153 3.137053606 2.9619233175 2.9765175082 2.991111699 
3.0057058897 3.0203000804 3.0348942711 3.0494884618 3.0640826525 3.0786768432 3.0932710339 3.1078652246 3.1224594153 
3.137053606 2.9619233175 2.9765175082 2.991111699 3.0057058897 3.0203000804 3.0348942711 3.0494884618 3.0640826525 
3.0786768432 3.0932710339 3.1078652246 3.1224594153 3.137053606 2.9619233175 2.9765175082 2.991111699 3.0057058897 
3.0203000804 3.0348942711 3.0494884618 3.0640826525 3.0786768432 3.0932710339 3.1078652246 3.1224594153 3.137053606 
3.137053606 3.1224594153 3.1078652246 3.0932710339 3.0786768432 3.0640826525 3.0640826525 3.0786768432 3.0786768432 
3.0640826525 3.0494884618 3.0348942711 3.0203000804 3.0203000804 3.0203000804 3.0348942711 3.0494884618 3.0640826525 
3.0786768432 3.0932710339 3.1078652246 2.9619233175 2.9619233175 2.9765175082 2.9765175082 2.991111699 2.991111699 
3.0057058897 3.0057058897 3.0203000804 3.0203000804 3.0348942711 3.0348942711 3.0494884618 3.0494884618 3.0640826525 
3.0640826525 3.0786768432 3.0786768432 3.0932710339 3.0932710339 3.1078652246 3.1078652246 2.9619233175 2.9765175082 
2.991111699 3.0057058897 3.0203000804 3.0348942711 3.0494884618 3.0640826525 3.0786768432 3.0932710339 3.1078652246 
2.9619233175 2.9765175082 2.991111699 3.0057058897 3.0203000804 3.0348942711 3.0494884618 3.0640826525 3.0786768432 