# vtk DataFile Version 4.2
vtk output
ASCII
DATASET UNSTRUCTURED_GRID
POINTS 1740 double
2144.07 -94.44003 0 2911 0 0 16.54298 -37.82236 0 
5.09149 -21.30132 0 1.27433 -10.75385 0 0 0 0 
2.54575 15.14293 0 6.36291 23.76126 0 14.00014 34.89063 0 
30.50239 50.70793 0 33.39435 -52.93479 0 2050.91 -103.7862 0 
60.1465 -69.72165 0 88.83633 -83.2817 0 118.7656 -94.71113 0 
153.4168 -105.7022 0 199.5806 -117.771 0 261.4466 -130.7139 0 
345.846 -144.1892 0 460.3522 -157.0592 0 608.4185 -167.1903 0 
783.2313 -172.4016 0 941.0559 -172.4533 0 1063.409 -170.1096 0 
1164.153 -166.8746 0 1263.449 -162.682 0 1375.468 -156.8941 0 
1513.293 -148.414 0 1665.281 -137.5317 0 1791.864 -127.3721 0 
2195.451 -89.09491 0 2273.924 -80.67077 0 2383.731 -68.3513 0 
2517.64 -52.47337 0 2649.227 -35.9232 0 2740.773 -23.82991 0 
2804.387 -15.13419 0 2848.802 -8.916218 0 2881.944 -4.196067 0 
56.61447 67.79801 0 84.09687 81.25172 0 112.4783 92.48395 0 
142.1748 102.3504 0 174.8563 111.6168 0 213.124 120.8806 0 
260.3759 130.5151 0 324.6539 141.1779 0 418.1422 152.9178 0 
535.6656 162.9871 0 690.9154 170.4255 0 902.6513 172.7852 0 
1100.32 169.0517 0 1270.99 162.3262 0 1462.794 151.6837 0 
1631.287 140.0952 0 1747.993 131 0 1922.788 115.9027 0 
2069.56 101.951 0 2128.804 96.0021 0 2297.147 78.11721 0 
2414.379 64.80104 0 2554.023 47.99319 0 2673.693 32.73885 0 
2757.97 21.50315 0 2814.297 13.7575 0 2852.02 8.460961 0 
2882.272 4.148909 0 1791.052 127.4402 0 1366.894 157.3738 0 
1444.38 -152.8302 0 1547.039 146.1296 0 1589.287 -143.1614 0 
1878.731 119.8675 0 1997.072 108.9828 0 1185.654 166.0472 0 
1882.536 -119.5292 0 1971.323 -111.4145 0 1684.777 136.0292 0 
2099.317 -98.9855 0 2234.809 84.9091 0 2181.695 90.53914 0 
1728.573 -132.5703 0 1718.815 133.3509 0 1834.825 123.7132 0 
1960.305 112.4444 0 2033.69 105.4648 0 2099.184 98.99892 0 
2214.291 -77.887243626 396.8421 2955.512 12.107889465 396.8421 158.0786 -29.501592881 396.8421 
147.0109 -13.656051984 396.8421 143.3217 -3.5237382382 396.8421 142.09 6.8188169712 396.8421 
144.5505 21.402327591 396.8421 148.2398 29.712940272 396.8421 155.621 40.457064995 396.8421 
171.5701 55.751767217 396.8421 174.3652 -43.966587009 396.8421 2124.254 -86.911579464 396.8421 
200.2206 -59.997090787 396.8421 227.9488 -72.913497467 396.8421 256.8748 -83.774201542 396.8421 
290.3647 -94.191934606 396.8421 334.981 -105.59516976 396.8421 394.7733 -117.77085816 396.8421 
476.3434 -130.3635717 396.8421 587.0114 -142.25461664 396.8421 730.1145 -151.39412007 396.8421 
899.0676 -155.73701417 396.8421 1051.602 -155.22988601 396.8421 1169.853 -152.57828559 396.8421 
1267.221 -149.16360197 396.8421 1363.188 -144.85464048 396.8421 1471.452 -139.00353288 396.8421 
1604.657 -130.54015646 396.8421 1751.55 -119.79181208 396.8421 1873.891 -109.83367597 396.8421 
2263.949 -72.738722225 396.8421 2339.792 -64.641356088 396.8421 2445.918 -52.833916205 396.8421 
2575.338 -37.669166803 396.8421 2702.515 -21.918264545 396.8421 2790.992 -10.440759481 396.8421 
2852.473 -2.2027286806 396.8421 2895.4 3.6808434103 396.8421 2927.431 8.1434083826 396.8421 
196.807 72.313426235 396.8421 223.3682 85.380974838 396.8421 250.7983 96.314008296 396.8421 
279.4994 105.93768086 396.8421 311.0855 114.99614304 396.8421 348.0705 124.07517918 396.8421 
393.7383 133.54815986 396.8421 455.8617 144.08068232 396.8421 546.2162 155.76744982 396.8421 
659.8003 165.93629566 396.8421 809.846 173.70680684 396.8421 1014.485 176.76571638 396.8421 
1205.528 173.8471412 396.8421 1370.477 167.89867664 396.8421 1555.851 158.16885304 396.8421 
1718.696 147.38910012 396.8421 1831.49 138.84724152 396.8421 2000.426 124.55457868 396.8421 
2142.278 111.24635882 396.8421 2199.537 105.54708578 396.8421 2362.236 88.334557092 396.8421 
2475.539 75.451022187 396.8421 2610.501 59.116672616 396.8421 2726.16 44.229628686 396.8421 
2807.613 33.230363669 396.8421 2862.05 25.632210656 396.8421 2898.509 20.429663109 396.8421 
2927.749 16.190186199 396.8421 1873.106 135.48882256 396.8421 1463.165 163.39963841 396.8421 
1538.054 -134.93532104 396.8421 1637.272 153.01968967 396.8421 1678.104 -125.33965492 396.8421 
1957.846 128.32001903 396.8421 2072.22 117.96465793 396.8421 1288 171.22505954 396.8421 
1961.524 -102.18477772 396.8421 2047.334 -94.300003798 396.8421 1770.393 143.57794299 396.8421 
2171.038 -82.272623359 396.8421 2301.989 94.884169906 396.8421 2250.655 100.30147409 396.8421 
1812.721 -114.92098469 396.8421 1803.29 141.06068124 396.8421 1915.411 131.96450177 396.8421 
2036.686 121.26386195 396.8421 2107.61 114.60609704 396.8421 2170.909 108.41991687 396.8421 
2284.511 -63.767713399 793.6842 3000.027 22.082648877 793.6842 299.6143 -20.954387692 793.6842 
288.9304 -5.7418566053 793.6842 285.3691 3.9982111206 793.6842 284.1801 13.949769707 793.6842 
286.5551 27.997475849 793.6842 290.1167 36.011169761 793.6842 297.2417 46.380924138 793.6842 
312.6379 61.162296328 793.6842 315.336 -34.818752905 793.6842 2197.597 -72.441663109 793.6842 
340.2947 -50.155465288 793.6842 367.0612 -62.488484717 793.6842 394.9839 -72.839399022 793.6842 
427.3123 -82.749013363 793.6842 470.3812 -93.570541574 793.6842 528.0998 -105.08778012 793.6842 
606.8411 -116.94198691 793.6842 713.6708 -128.04408698 793.6842 851.8104 -136.42954853 793.6842 
1014.904 -140.17277608 793.6842 1162.147 -139.33709342 793.6842 1276.298 -136.54645498 793.6842 
1370.288 -133.08401615 793.6842 1462.927 -128.78164202 793.6842 1567.436 -122.99721398 793.6842 
1696.021 -114.69535998 793.6842 1837.82 -104.21988525 793.6842 1955.917 -94.560389279 793.6842 
2332.447 -58.826261806 793.6842 2405.659 -51.06407916 793.6842 2508.105 -39.764438401 793.6842 
2633.037 -25.280927543 793.6842 2755.801 -10.267334892 793.6842 2841.209 0.65635064984 793.6842 
2900.561 8.4892520963 793.6842 2941.997 14.079938208 793.6842 2972.917 18.318479069 793.6842 
336.9995 77.196175476 793.6842 362.6396 89.870158305 793.6842 389.1182 100.49130074 793.6842 
416.8239 109.855303 793.6842 447.3145 118.68387627 793.6842 483.0167 127.54889029 793.6842 
527.1009 136.81985877 793.6842 587.0697 147.16081567 793.6842 674.2905 158.69499849 793.6842 
783.9349 168.82442883 793.6842 928.7766 176.7250674 793.6842 1126.317 180.18578071 793.6842 
1310.735 177.79344308 793.6842 1469.963 172.37305272 793.6842 1648.908 163.28554147 793.6842 
1806.105 153.09318859 793.6842 1914.987 144.96332519 793.6842 2078.064 131.28756476 793.6842 
2214.996 118.49176192 793.6842 2270.269 112.99699285 793.6842 2427.326 96.356262092 793.6842 
2536.699 83.861843491 793.6842 2666.98 67.980765255 793.6842 2778.628 53.473357405 793.6842 
2857.255 42.736807328 793.6842 2909.806 35.312256743 793.6842 2945.001 30.225158123 793.6842 
2973.224 26.07782392 793.6842 1955.16 141.75709404 793.6842 1559.437 168.19035489 793.6842 
1631.729 -118.99915935 793.6842 1727.505 158.42835624 793.6842 1766.921 -109.61930134 793.6842 
2036.96 134.89786295 793.6842 2147.368 124.95784583 793.6842 1390.347 175.42876757 793.6842 
2040.511 -87.163725723 793.6842 2123.346 -79.556343496 793.6842 1856.009 149.47063123 793.6842 
2242.759 -67.980731746 793.6842 2369.167 102.69583363 793.6842 2319.614 107.93255423 793.6842 
1896.869 -99.490531704 793.6842 1887.765 147.07363716 793.6842 1995.998 138.38748129 793.6842 
2113.066 128.12852363 793.6842 2181.531 121.72695194 793.6842 2242.634 115.76776428 793.6842 
2354.732 -51.598735591 1190.526 3044.539 30.326817812 1190.526 441.15 -12.558243048 1190.526 
430.8497 2.0528832954 1190.526 427.4164 11.41751978 1190.526 426.2701 20.992769723 1190.526 
428.5601 34.521307775 1190.526 431.9934 42.245371333 1190.526 438.8627 52.247741316 1190.526 
453.7057 66.520580383 1190.526 456.3069 -25.857262014 1190.526 2270.94 -59.907985518 1190.526 
480.3688 -40.547473186 1190.526 506.1737 -52.34267349 1190.526 533.0934 -62.228311549 1190.526 
564.26 -71.678915868 1190.526 605.7815 -81.981415087 1190.526 661.4265 -92.92070619 1190.526 
737.3385 -104.14196459 1190.526 840.33 -114.59170733 1190.526 973.5064 -122.39060736 1190.526 
1130.74 -125.71932113 1190.526 1272.693 -124.70971472 1190.526 1382.742 -121.89151281 1190.526 
1473.356 -118.46726493 1190.526 1562.666 -114.25057135 1190.526 1663.42 -108.61487856 1190.526 
1787.385 -100.56506237 1190.526 1924.09 -90.44734529 1190.526 2037.944 -81.144527228 1190.526 
2400.946 -46.868805798 1190.526 2471.527 -39.44386652 1190.526 2570.292 -28.644653063 1190.526 
2690.735 -14.816537493 1190.526 2809.091 -0.49586763712 1190.526 2891.43 9.9166486747 1190.526 
2948.647 17.379944382 1190.526 2988.597 22.705439609 1190.526 3018.403 26.742268764 1190.526 
477.1918 82.024419227 1190.526 501.9109 94.296754852 1190.526 527.4382 104.59429061 1190.526 
554.1485 113.68384255 1190.526 583.5435 122.2640886 1190.526 617.963 130.8914955 1190.526 
660.4633 139.92860689 1190.526 718.2775 150.03101226 1190.526 802.3645 161.33846754 1190.526 
908.0698 171.32762723 1190.526 1047.707 179.21596577 1190.526 1238.151 182.87475855 1190.526 
1415.942 180.8157507 1190.526 1569.449 175.76006041 1190.526 1741.965 167.140498 1190.526 
1893.514 157.39445853 1190.526 1998.484 149.58758537 1190.526 2155.702 136.41168869 1190.526 
2287.714 124.04756716 1190.526 2341.001 118.72982738 1190.526 2492.415 102.60050929 1190.526 
2597.858 90.469973107 1190.526 2723.46 75.031701013 1190.526 2831.095 60.913285578 1190.526 
2906.899 50.456832916 1190.526 2957.56 43.222736019 1190.526 2991.49 38.264748306 1190.526 
3018.699 34.221921494 1190.526 2037.214 146.50288771 1190.526 1655.708 171.80504018 1190.526 
1725.403 -104.73372783 1190.526 1817.738 162.50307091 1190.526 1855.738 -95.657907539 1190.526 
2116.075 139.89443219 1190.526 2222.516 130.29916417 1190.526 1492.694 178.62617677 1190.526 
2119.498 -74.034008301 1190.526 2199.357 -66.730654775 1190.526 1941.625 153.91862768 1190.526 
2314.479 -55.633503108 1190.526 2436.346 108.74924955 1190.526 2388.573 113.82475046 1190.526 
1981.017 -85.889840559 1190.526 1972.24 151.61617145 1190.526 2076.584 143.25786591 1190.526 
[...]
POINT_DATA 1740
FIELD FieldData 1
Pressure 1 1740 double
3.1046202941 3.0166651752 3.0092928416 2.9857387552 2.9788937959 2.9597428327 2.9717775683 2.9889816823 3.0200513329 
3.0342719265 3.0105712774 3.108533268 3.0332667611 3.047698494 3.064922862 3.0641077154 3.0814513318 3.0867417444 
3.107376874 3.1127656062 3.1310515822 3.1391970399 3.1412925725 3.146819147 3.1421190346 3.1381454279 3.1348494508 
3.1312877359 3.1248516717 3.1192805216 3.1020369556 3.0986536452 3.0930582986 3.0850296263 3.0741791878 3.0641559451 
3.0542415546 3.0456074847 3.0373252646 3.0701636942 3.0819297318 3.094477227 3.1078172582 3.1142213838 3.1206333202 
3.127950369 3.1356496091 3.1513914056 3.1637560495 3.1810519644 3.1920904294 3.1985939789 3.2046626084 3.2106088678 
3.2145907237 3.2177049473 3.2185895675 3.1761540268 3.0753603537 3.0770417818 3.0729934675 3.0650782716 3.0558886422 
3.0455185925 3.0356684933 3.0284276254 3.026651988 3.2175797811 3.2083164951 3.1336947393 3.2118656175 3.1281270245 
3.218406986 3.2187482205 3.2053179682 3.1155355108 3.1119150738 3.2156494805 3.1064831581 3.0778127748 3.0742005662 
3.1218756353 3.2172695414 3.2180376367 3.2197134701 3.2294281973 3.0568090504 3.1016629723 3.0219067442 3.0275394972 
3.0010428346 3.0079003612 2.9864797385 2.9939743023 3.0057458757 3.0341135647 3.0526853424 3.0349173186 3.1059298214 
3.0552493689 3.0676747891 3.0810391809 3.085111039 3.1003226176 3.1097938214 3.1228505985 3.1280901388 3.1379735702 
3.1421781595 3.1457236412 3.1457890776 3.1415253211 3.1369726736 3.1318879986 3.1276569428 3.1217333952 3.1165242296 
3.0993919592 3.0953789561 3.0897137842 3.0818457433 3.0709224322 3.0608703991 3.0511139598 3.0435485182 3.0284365465 
3.0858485005 3.1069944588 3.1192949282 3.1277168468 3.1369732245 3.1414885404 3.147034118 3.1575363135 3.1692878611 
3.1779729914 3.1877400242 3.1956897453 3.2020085268 3.2084934282 3.212056177 3.2150219621 3.21756433 3.2198880273 
3.0923263106 3.0970567522 3.0877496418 3.0818968917 3.0735137817 3.0626540705 3.0523073627 3.0421644941 3.0360662007 
3.0359624925 3.2182347939 3.2102695093 3.1307039139 3.214554163 3.1244349675 3.2195378982 3.2191389165 3.2068575687 
3.1126755208 3.1090803924 3.2162510103 3.1040278558 3.0914998065 3.0966464974 3.119352374 3.2169709897 3.2182615153 
3.2197703489 3.2002425097 3.0989411321 3.0996931311 3.0228061699 3.0278510346 3.0002477589 3.0023469203 2.9846118084 
2.9967620336 3.0104427692 3.0393394284 3.0605723232 3.043186566 3.1039133503 3.058081688 3.0770800359 3.0951659649 
3.1018477549 3.1141014969 3.1222999709 3.1349877502 3.1410758338 3.1475568675 3.1497339761 3.1490713446 3.1471255673 
3.1414140421 3.1357886275 3.1307625958 3.1250355351 3.1197968019 3.114676282 3.0973618713 3.0936347408 3.0877483604 
3.0800262729 3.0689359928 3.0587250998 3.0494996893 3.0423371679 3.0285454624 3.0936036973 3.1153257417 3.1338122299 
3.1427893042 3.1528015432 3.1616400214 3.1715682605 3.1758842067 3.1844642288 3.1943489464 3.2001429539 3.205841499 
3.2082454102 3.214815708 3.2177974581 3.2184613126 3.220043201 3.2227569895 3.0851000767 3.0906722122 3.0887320421 
3.0834788465 3.0757703816 3.0652915336 3.0556303593 3.0456555855 3.038798467 3.039994248 3.2207541568 3.2166273801 
3.1283604413 3.2183695258 3.1223721622 3.2216216908 3.2190559988 3.2121395263 3.110778098 3.1071010833 3.2188163709 
3.1021057971 3.0908514556 3.0914791309 3.1174237157 3.2192874299 3.2213038849 3.2224209451 3.0827597178 3.0851274185 
3.098359908 3.0233666194 3.0284231209 3.0002131504 3.0026955499 2.9827794139 2.9927422808 3.007344042 3.0399810854 
3.061720289 3.0425124835 3.10257192 3.0628835111 3.0803738629 3.0992731248 3.1081983742 3.120061068 3.1286490841 
3.1406400075 3.1476940838 3.1535618461 3.1543750172 3.1523860816 3.1484716063 3.1419463699 3.135866439 3.1302344476 
3.1243465462 3.1184595265 3.1134117516 3.0961302453 3.0923864716 3.0867344581 3.0790512081 3.0681506724 3.0579795615 
3.0490968482 3.0419720498 3.0285658701 3.0977190219 3.1210858848 3.1363710436 3.1484654617 3.156140495 3.1670632069 
3.1795139009 3.1893584412 3.1973533029 3.2068779099 3.2124885192 3.2173255847 3.2178677449 3.223416197 3.2256285992 
3.2254753468 3.2261835621 3.2328146194 3.0902917829 3.0899675677 3.0880599776 3.0832868316 3.0754893108 3.0654416613 
3.0559188979 3.046485097 3.0393009443 3.0409271871 3.2265083494 3.2247396699 3.1277245507 3.2256999168 3.121274107 
3.2269058784 3.0817332814 3.2208210008 3.1095646306 3.1056794946 3.2255157529 3.1007057158 3.0900497281 3.0903956043 
3.1159881061 3.2255498824 3.2267301452 3.1430312565 3.0857302916 3.0900862431 3.0975608957 3.0232217553 3.0306512685 
3.0011430438 3.0084185748 2.9871194884 2.9948850074 3.0084624732 3.042167909 3.0630409156 3.0436574894 3.101672744 
3.0652434387 3.082587456 3.0994729744 3.1093232837 3.1218768038 3.1322928267 3.1432619017 3.1510064747 3.1572237813 
3.1568991364 3.1536671653 3.1484344916 3.1413935996 3.1350238938 3.1291324663 3.1234896989 3.1176238566 3.112358255 
3.0953114364 3.091567257 3.0860170348 3.0783736801 3.0676954543 3.0576885292 3.0489887145 3.0417371162 3.0288334382 
3.0992327345 3.1231238136 3.1380887274 3.1512426901 3.1602549581 3.1716452896 3.1831155529 3.1890513564 3.2002636524 
3.2126683201 3.2214269466 3.2260695383 3.2272174134 3.2318105139 3.2333677334 3.2328622876 3.2333158464 3.2021669984 
3.0891898163 3.089521973 3.0872137465 3.0822466409 3.0743813143 3.0645350616 3.055122179 3.0458538817 3.0386284105 
3.0407929004 3.2335620713 3.2332709285 3.126865683 3.2331330757 3.1204407317 3.2339351489 3.0873302227 3.2298012257 
3.1085755322 3.1046608423 3.2327573199 3.0996825111 3.0891550759 3.089543245 3.115044841 3.2328543469 3.2336543697 
3.0768936298 3.088448271 3.0896674876 3.0968420104 3.0227265105 3.0317914631 3.0025640497 3.0104457591 2.9880952892 
2.9964900081 3.0100014053 3.0431697944 3.0650215554 3.0446308143 3.1008388766 3.0664562521 3.0843813153 3.1004621594 
3.1107475792 3.1233576559 3.1345071224 3.1457706664 3.1534936151 3.160267799 3.1588945259 3.1544711219 3.1480462102 
3.140676241 3.1341987971 3.1282127652 3.1226145784 3.1167393667 3.111426574 3.0945865283 3.090838681 3.0854087331 
3.0777855702 3.067251721 3.0573201516 3.0487474903 3.0413750855 3.0292015335 3.1008351358 3.1250827295 3.140167182 
3.1534183317 3.1625294464 3.1744129267 3.1871751055 3.1944970734 3.2060394114 3.2179092895 3.2284179937 3.2338743809 
3.2359030434 3.241109191 3.2423936872 3.2409148188 3.2407881081 3.0928054317 3.088467492 3.0875520809 3.0852108053 
3.0804583967 3.0729204263 3.0633461985 3.0541089209 3.0451729607 3.0379232716 3.0401998836 3.2408644718 3.2417017727 
3.1259454736 3.2416553358 3.1195515899 3.2430738903 3.0874566591 3.2385434907 3.1076863052 3.1038174426 3.2404900159 
3.0989454222 3.0871175254 3.0873753447 3.1141633533 3.2404666737 3.2405813383 3.0860553285 3.0879297875 3.0877696393 
3.0962692828 3.0224133652 3.032169924 3.0027726334 3.0101152153 2.9876307341 2.996425861 3.0100956275 3.0434088869 
3.0655427044 3.0451553293 3.1002588597 3.0671246063 3.0852986957 3.1013137712 3.1118607453 3.1245767959 3.1361488977 
3.1474992271 3.1552618354 3.1624310998 3.1603439242 3.1549763515 3.147725913 3.1402251794 3.1337403854 3.1277218047 
3.1220725538 3.1161334069 3.1108521421 3.0940396769 3.0902871385 3.0849493488 3.0773485523 3.0669178003 3.0569974993 
3.0485044776 3.0410179181 3.0294802249 3.1014333497 3.1259797838 3.1414643557 3.1548418161 3.1642748045 3.1762694027 
3.1890107936 3.1970802812 3.2091498842 3.2221575828 3.2334789914 3.240351952 3.2435551189 3.2495712506 3.25118622 
3.2499165155 3.2491635439 3.0839298863 3.0881565549 3.0869080847 3.0838021798 3.0793128305 3.0721281406 3.0626791659 
3.0535795616 3.0448225756 3.0375691264 3.0400331438 3.2489568822 3.2506163331 3.1254444741 3.2508910279 3.118980398 
3.2600814948 3.0884795997 3.2466097699 3.1071072091 3.1032243539 3.2492210492 3.0983435406 3.0856841496 3.0864847431 
3.1134815889 3.2488489825 3.2493099326 3.0877564963 3.0878957462 3.0879297548 3.0959297878 3.0222044891 3.0325762771 
3.0030360568 3.0102672549 2.9878351825 2.9965208176 3.0100915203 3.0436665119 3.0657926764 3.0455677693 3.0999726397 
3.0676152905 3.085774548 3.101708308 3.1124737453 3.125384457 3.1373085042 3.1486488474 3.156486371 3.1639763682 
3.1614130374 3.1552353247 3.1474934089 3.1399520741 3.1335021277 3.1274961144 3.1216066317 3.1157829434 3.1104634779 
3.093714002 3.0899435367 3.0846938368 3.0771042803 3.0667356796 3.0567689774 3.0483372807 3.0407320611 3.0297149673 
3.1017307962 3.1264909277 3.1421647583 3.1556718879 3.1652628174 3.1773410415 3.1901578013 3.1988486919 3.2112023265 
3.2247400425 3.2367112533 3.2448402057 3.2495359598 3.2562533324 3.2586166877 3.2581793767 3.2575552184 3.0842340265 
3.0857927823 3.0851722043 3.0829365648 3.0784782954 3.0714010153 3.0620968285 3.0531862003 3.0445085254 3.0371886712 
3.0398574857 3.2573812809 3.2581991822 3.1250489779 3.2585194806 3.1186174955 3.257308397 3.0857026526 3.2530675812 
3.1067432839 3.1029507748 3.257748388 3.097980592 3.0847823961 3.0853033267 3.1130631865 3.2572935503 3.2578706528 
3.0882500541 3.0854540388 3.0858958497 3.0957940651 3.0218214452 3.0329922004 3.0033966236 3.0105702503 2.9881241421 
2.9968259806 3.0103572401 3.0440102202 3.066153628 3.0459509464 3.0998117175 3.0679799679 3.0863612848 3.1023446779 
3.1132908411 3.1261933804 3.1383408364 3.1496644156 3.1577145387 3.1652836403 3.1623817138 3.1555313473 3.1475519612 
3.1399443001 3.1334520067 3.1274742977 3.1214497938 3.115648819 3.1103015288 3.0935563204 3.0897690793 3.0845988517 
3.0769621803 3.0666950119 3.0565776868 3.0481931859 3.0405081683 3.0298171644 3.1020973136 3.1269631987 3.1427878233 
3.1563711366 3.1660367914 3.1781841551 3.1909715845 3.2000477293 3.2126691592 3.2265237842 3.2388483815 3.2481307845 
3.2537178456 3.2612923123 3.2651457373 3.2648771026 3.2650927701 3.0821946212 3.0827743865 3.082715733 3.0800255475 
3.0757089341 3.0689434564 3.0600592532 3.0514848617 3.0430184412 3.0357354247 3.0386284795 3.2653238635 3.2634656372 
3.1249503836 3.2652022032 3.1185100612 3.2690761701 3.0806014809 3.2576690404 3.106595905 3.1028481056 3.2647962311 
3.0977559627 3.0820216092 3.0820169795 3.1128763104 3.2645893747 3.2650379097 3.082621142 3.0813117172 3.0829082263 
3.0957511885 3.0213087124 3.0333507012 3.0037356777 3.0109075627 2.9884113962 2.9971347042 3.0106665233 3.0443269914 
3.0665427305 3.046222325 3.099654098 3.0682227422 3.0866886329 3.102764219 3.113839859 3.1268281837 3.1391452548 
3.1505736568 3.158887144 3.1665160499 3.1634054393 3.1560550338 3.1479284116 3.1401680991 3.1336254868 3.1276124706 
3.1216021856 3.1157340537 3.1103074118 3.0935023816 3.0897261054 3.0846275816 3.0769285342 3.0667363459 3.0565544032 
3.0481971616 3.0404599244 3.0300737515 3.1025010187 3.1274311849 3.1433770629 3.1569932069 3.1667448385 3.1789060771 
3.1916659205 3.2009829383 3.2138146581 3.2278641155 3.2404040654 3.2500596582 3.2564992409 3.2646811385 3.2686454277 
3.2700359811 3.2705076926 3.0771761171 3.0782827613 3.0779462478 3.0761387783 3.0720721522 3.065684249 3.0570132138 
3.0486435394 3.0405980138 3.0334779257 3.0363957809 3.2707589571 3.2672555874 3.1251061725 3.2698285172 3.1186427717 
3.2807666204 3.0775170993 3.2608123079 3.1066821822 3.1028722691 3.2702013477 3.0976310969 3.0777430077 3.0776609846 
3.1128521958 3.2702377524 3.2698667627 3.0773676183 3.0774636996 3.0774738714 3.0958151357 3.0210834574 3.0336539359 
3.0040109702 3.011207593 2.9887054308 2.9974411818 3.0109542075 3.044644009 3.0669492421 3.0463411677 3.099850163 
3.0683425647 3.0868675037 3.1030240882 3.1142235902 3.1272707924 3.1397416825 3.151372156 3.1600373093 3.1677002846 
3.1645325877 3.1568441166 3.1485651765 3.140606589 3.1340350575 3.1279326103 3.1220557863 3.116037079 3.1105246214 
3.093610999 3.0898027963 3.0847531114 3.0770093184 3.0669049854 3.0566745115 3.0483462855 3.0405565664 3.0307049953 
3.1029448391 3.1278984685 3.1439476428 3.1575774189 3.1673773459 3.1795325159 3.1922731867 3.2017436107 3.2147279405 
3.2288733312 3.2415661287 3.2513513428 3.2581714109 3.2669148477 3.2711423226 3.2729249191 3.2739899085 3.0785749707 
3.0760438911 3.0752531909 3.073558352 3.0697045677 3.0634304785 3.0545583079 3.0462063992 3.0384403484 3.0316059857 
3.0342152278 3.2745943374 3.2696130681 3.125567337 3.2725725221 3.118996359 3.2825127538 3.0750914775 3.2626995011 
3.1069061044 3.1032321183 3.2735160737 3.0976340888 3.0752539727 3.0751401712 3.113058319 3.2736404449 3.2742997313 
3.0741824693 3.0751164896 3.0758828542 3.0960730515 3.0212918493 3.033877088 3.0042003554 3.0112984244 2.9889843681 
2.9977627742 3.0112569972 3.0449888503 3.0673827051 3.0463969173 3.1001311117 3.0683781404 3.0868750904 3.1031411772 
3.114483267 3.1275907466 3.1401860885 3.1521340955 3.1611019559 3.16889477 3.1658635894 3.1579810519 3.149501142 
3.1412951634 3.1346823304 3.1284552972 3.1225494603 3.1163709038 3.110832925 3.0938581422 3.0900174178 3.0849721277 
3.0771747907 3.0671301293 3.0568452429 3.0485304154 3.0407246012 3.0312273608 3.1034454002 3.1284020024 3.1445290565 
3.1581589274 3.1679979897 3.1801342212 3.1928340237 3.2024408872 3.2155612877 3.2297029396 3.2424788147 3.2523362627 
3.2592648129 3.2682269585 3.2726347044 3.2747925762 3.2761804174 3.0774764233 3.0749239904 3.0740152775 3.0720320004 
3.068166654 3.0619736306 3.0530292305 3.0447407915 3.0371414322 3.0306443945 3.032745399 3.2769143971 3.2711762654 
3.1260624501 3.274350236 3.1194246872 3.2838128725 3.0750265144 3.2638716231 3.1072230563 3.1035884804 3.2754606363 
3.0978666767 3.0733572541 3.0735978447 3.1133354157 3.2757190034 3.2767839772 3.0723276801 3.0744680764 3.0746822989 
3.09637843 3.0218256078 3.0340919559 3.0042958638 3.0112037167 2.9892717559 2.9981119855 3.0116053504 3.0453915269 
3.0678595263 3.0463484059 3.1004569064 3.0682341092 3.086835724 3.1032754279 3.1147810542 3.1279068426 3.1406045188 
3.1528471895 3.1623068434 3.1702550585 3.1675587671 3.1596280575 3.1507845902 3.1422380161 3.1354876327 3.1291472376 
3.1231845173 3.1169087849 3.1112689029 3.0941434363 3.0902741901 3.0852314629 3.0773672242 3.0673293782 3.0569966728 
3.0486761993 3.0408790958 3.0313843395 3.1040382192 3.1289713815 3.1451980708 3.1588590833 3.1687040798 3.1808370726 
3.1934746373 3.2031910508 3.216470881 3.2305035897 3.2432802241 3.2531980192 3.2601014596 3.269028727 3.2737292909 
3.2759847245 3.2775303824 3.0761521261 3.0735696687 3.0729242889 3.0711212647 3.0673776224 3.0613657162 3.0525052629 
3.0442696424 3.0369094516 3.0307800689 3.0326204666 3.2781494561 3.2721597919 3.1267192193 3.275497806 3.1199166566 
3.2895826392 3.0741704996 3.2646724406 3.107620157 3.1039337656 3.2767183415 3.0981538417 3.0725602108 3.0729476403 
3.1138004388 3.276984307 3.2785825924 3.0706808284 3.0735677718 3.0732323982 3.0966947679 3.022361564 3.0344315318 
3.0044335502 3.0111086231 2.9897073852 2.9985638844 3.0120428395 3.0460880297 3.0685286443 3.0460740057 3.1007970358 
3.0679962454 3.0866675625 3.1033096867 3.1150035505 3.1281615536 3.1409337515 3.1535548843 3.1634992369 3.1716065264 
3.1694240409 3.1616822968 3.152213309 3.143254179 3.1362566661 3.1297652072 3.1237269808 3.1173551339 3.1116855757 
3.0944240135 3.0905346279 3.0854648049 3.0775600666 3.0674718465 3.0571200201 3.0487720083 3.0410184421 3.0310720194 
3.1048705788 3.1297339891 3.1461145226 3.1597820147 3.1696192439 3.1817255817 3.1943299517 3.2040874923 3.217533116 
3.231341348 3.2440923823 3.2539475761 3.2608282666 3.2696676551 3.2744613579 3.276922932 3.2784301666 3.0703940576 
3.0733165998 3.07304939 3.0715420238 3.0679941155 3.0621671319 3.0534500284 3.0451925123 3.0379140459 3.0318442313 
3.0333602008 3.2793841287 3.2728861775 3.1273469655 3.2762868112 3.1204191106 3.2870196574 3.0732819936 3.2653155325 
3.1079868489 3.1042349093 3.2776679887 3.0984851499 3.0729154529 3.0731390154 3.1142293431 3.2779492497 3.2808825174 
3.0711193752 3.0729745512 3.0731007225 3.0970340803 3.0231102509 3.034655622 3.004683537 3.0112613788 2.9904256136 
2.9992192842 3.012652488 3.0472492829 3.0694991419 3.0457155384 3.1011336598 3.0675347028 3.0862740906 3.1031370746 
3.1149620536 3.1281184323 3.1408737909 3.1540465509 3.1646015823 3.1728728933 3.1713787101 3.164017537 3.1536180864 
3.1441046265 3.136764931 3.1300644188 3.1240797886 3.1176950113 3.1121114159 3.0947273143 3.0908696711 3.085721571 
3.0778317913 3.0676206268 3.057251148 3.048851134 3.0411141554 3.0302577658 3.1058447561 3.1307418157 3.1470234521 
3.1606646001 3.1705710881 3.1825387723 3.1952154832 3.2050870054 3.2185826342 3.2322173499 3.2447774657 3.2550054014 
3.261737539 3.2703896497 3.2756933265 3.2783021875 3.2799150246 3.075334266 3.07558852 3.0748285977 3.0734570957 
3.069866087 3.064233823 3.0556697598 3.047445047 3.0401466538 3.0338299404 3.0354961389 3.2813134421 3.2736628768 
3.1277581627 3.2774665018 3.1207703316 3.2429491131 3.0743908764 3.2660720001 3.1082829021 3.1045550181 3.27891858 
3.0988772043 3.0748319802 3.0748690278 3.1146979588 3.2793244022 3.2931740859 3.0756791475 3.0748756405 3.0757384847 
3.0974356202 3.0237835971 3.0334569744 3.0039000774 3.0112852854 2.9901868516 2.9995428728 3.013025759 3.0474657059 
3.0701875076 3.0447284629 3.1017143469 3.0660750319 3.0850955625 3.1022497798 3.1143742752 3.1274917432 3.1397700239 
3.154422129 3.1645713569 3.1741937861 3.1740468961 3.1669713093 3.1552789879 3.1449972253 3.1371926971 3.1303101938 
3.1242642358 3.1187562545 3.1129107396 3.0951456145 3.0912706706 3.086024758 3.0781252451 3.06770904 3.0573121371 
3.0488376338 3.0410467185 3.0288896024 3.1064783646 3.1315685321 3.1477269728 3.1612101572 3.1712491792 3.1832605989 
3.1959648862 3.2060575551 3.2196430396 3.2332584353 3.2462970126 3.2561657625 3.2631725362 3.2720183392 3.278682449 
3.281068808 3.2820770254 3.0743112757 3.0771202046 3.0775887412 3.0762756849 3.0724547381 3.0668324672 3.0582401669 
3.0502132038 3.0427642905 3.0362445666 3.0382268703 3.2817678039 3.2756552222 3.1281175852 3.2801955047 3.1210959249 
3.1161215275 3.075867328 3.2673703576 3.1089535216 3.1049846041 3.2811643748 3.0993887948 3.0776513207 3.077466309 
3.11564662 3.2814041415 3.2644213693 3.075198513 3.0765386442 3.0773001476 3.0978088485 3.0236570396 3.0323542125 
3.0016558346 3.006395693 2.9887777407 2.9984039039 3.0126281485 3.0468339434 3.0702829698 3.0430970795 3.1018717021 
3.0647972881 3.0835575619 3.1015134961 3.1132376142 3.1264629273 3.1383866123 3.1553882169 3.1662035911 3.1769150649 
3.1793666177 3.1714638306 3.1583117424 3.1462127754 3.1376346682 3.1308897335 3.1245116634 3.1185219219 3.113575319 
3.0956820704 3.0917101243 3.0863681314 3.0786990392 3.0678600494 3.0573026493 3.0485563663 3.040760106 3.0269654982 
3.1071927972 3.1322386293 3.1487360732 3.1624200644 3.1725274824 3.1844875864 3.1969514022 3.2079292319 3.2220409203 
3.2361396917 3.2496090983 3.2626899771 3.2671424081 3.2756040512 3.2809028887 3.2810993429 3.2807048559 3.0719779878 
3.0781286546 3.0782171037 3.0788843049 3.0749181448 3.0691771743 3.0602481099 3.0524795273 3.044656926 3.0378761634 
3.0406131444 3.2684754166 3.2788430455 3.1281324101 3.2810745134 3.1215937071 3.0654896088 3.075192459 3.2707222648 
3.1089258577 3.1051482061 3.2810009098 3.099890481 3.079688016 3.0795423335 3.116168655 3.2804831476 3.0667886588 
3.0744351027 3.0763140523 3.0786715706 3.0982050057 3.0261361991 3.0339129222 3.0046489692 3.0079649307 2.9900578937 
3.000826837 3.0155782188 3.0505757099 3.0716719419 3.0458860535 3.1017669232 3.0651367195 3.0853848226 3.1013373898 
3.1149052802 3.1282539526 3.1401910078 3.1599272742 3.1807798403 3.1844591749 3.1833296485 3.1740932718 3.1586832584 
3.1464049324 3.1373818705 3.130402373 3.1235732554 3.1164322543 3.1112495057 3.0953233772 3.092911751 3.0871574934 
3.0777947852 3.0681565734 3.0568610046 3.0476711868 3.0391241514 3.0249279046 3.1057950956 3.1329006708 3.1538646701 
3.1678754375 3.1768739027 3.1935932034 3.2025336622 3.2130716644 3.2312688856 3.2433662218 3.2592269557 3.2683250558 