# vtk DataFile Version 4.2
vtk output
ASCII
DATASET POLYDATA
POINTS 6394 float
2491.26 -3081.15 5800 2493.85 -3084.32 5800 2500.66 -3081.15 5800 
2482.41 -3068.15 5800 2522.85 -3070.83 5800 2528.61 -3068.15 5800 
2477.28 -3055.15 5800 2551.85 -3057.34 5800 2556.57 -3055.15 5800 
2471.89 -3042.15 5800 2580.85 -3043.85 5800 2584.53 -3042.14 5800 
2466.5 -3029.15 5800 2609.86 -3030.36 5800 2612.48 -3029.14 5800 
2461.11 -3016.15 5800 2464.85 -3025.18 5800 2638.86 -3016.87 5800 
2640.44 -3016.14 5800 2455.72 -3003.15 5800 2667.86 -3003.39 5800 
2668.39 -3003.14 5800 2450.33 -2990.15 5800 2696.35 -2990.14 5800 
2444.94 -2977.14 5800 2696.86 -2989.9 5800 2724.3 -2977.14 5800 
2439.54 -2964.14 5800 2725.86 -2976.41 5800 2752.26 -2964.13 5800 
2434.15 -2951.14 5800 2435.86 -2955.25 5800 2754.87 -2962.92 5800 
2770.73 -2951.13 5800 2428.76 -2938.14 5800 2780.42 -2938.13 5800 
2423.37 -2925.14 5800 2783.87 -2931.35 5800 2786.67 -2925.13 5800 
2417.98 -2912.14 5800 2792.51 -2912.13 5800 2412.59 -2899.14 5800 
2798.35 -2899.13 5800 2407.2 -2886.14 5800 2804.19 -2886.13 5800 
2401.81 -2873.14 5800 2406.86 -2885.33 5800 2810.03 -2873.12 5800 
2396.41 -2860.14 5800 2812.88 -2866.8 5800 2815.88 -2860.12 5800 
2391.02 -2847.14 5800 2821.72 -2847.12 5800 2385.63 -2834.14 5800 
2827.56 -2834.12 5800 2380.24 -2821.14 5800 2833.4 -2821.12 5800 
2374.85 -2808.13 5800 2377.87 -2815.41 5800 2839.25 -2808.12 5800 
2369.46 -2795.13 5800 2841.88 -2802.25 5800 2845.09 -2795.12 5800 
2364.07 -2782.13 5800 2850.93 -2782.12 5800 2358.68 -2769.13 5800 
2856.77 -2769.11 5800 2343.64 -2756.13 5800 2348.87 -2760.02 5800 
2862.61 -2756.11 5800 2324.58 -2743.13 5800 2868.46 -2743.11 5800 
2305.53 -2730.13 5800 2319.87 -2739.91 5800 2870.89 -2737.7 5800 
2874.3 -2730.11 5800 2286.48 -2717.13 5800 2290.87 -2720.13 5800 
2880.14 -2717.11 5800 2267.42 -2704.13 5800 2885.98 -2704.11 5800 
2248.37 -2691.13 5800 2261.87 -2700.34 5800 2891.82 -2691.11 5800 
2229.32 -2678.13 5800 2232.87 -2680.55 5800 2897.67 -2678.11 5800 
2210.27 -2665.13 5800 2899.89 -2673.15 5800 2903.51 -2665.1 5800 
2189.21 -2652.13 5800 2203.87 -2660.82 5800 2909.17 -2652.1 5800 
2166.44 -2639.13 5800 2174.87 -2643.94 5800 2914.58 -2639.1 5800 
2143.67 -2626.13 5800 2145.87 -2627.39 5800 2919.74 -2626.1 5800 
2120.9 -2613.13 5800 2924.63 -2613.1 5800 2098.13 -2600.13 5800 
2116.87 -2610.83 5800 2928.9 -2601.77 5800 2929.53 -2600.1 5800 
2075.36 -2587.13 5800 2087.87 -2594.27 5800 2934.42 -2587.1 5800 
2052.58 -2574.13 5800 2058.87 -2577.72 5800 2939.32 -2574.1 5800 
2029.81 -2561.13 5800 2029.87 -2561.16 5800 2946.26 -2561.1 5800 
2006.19 -2548.13 5800 2956.4 -2548.09 5800 2004.47 -2535.13 5800 
2957.91 -2546.64 5800 2969.84 -2535.09 5800 2003.84 -2522.13 5800 
2983.29 -2522.09 5800 2003.52 -2509.12 5800 2986.91 -2518.59 5800 
2996.73 -2509.09 5800 2003.45 -2496.12 5800 3010.17 -2496.09 5800 
2003.78 -2483.12 5800 3015.91 -2490.53 5800 3023.61 -2483.09 5800 
2004.11 -2470.12 5800 3037.05 -2470.09 5800 2004.44 -2457.12 5800 
3044.92 -2462.48 5800 3050.5 -2457.08 5800 2004.76 -2444.12 5800 
3063.94 -2444.08 5800 2005.09 -2431.12 5800 3073.92 -2434.43 5800 
3077.38 -2431.08 5800 2005.42 -2418.12 5800 3090.82 -2418.08 5800 
2005.75 -2405.12 5800 3102.92 -2406.38 5800 3104.26 -2405.08 5800 
2006.08 -2392.11 5800 3117.71 -2392.08 5800 2006.41 -2379.11 5800 
3131.15 -2379.07 5800 2006.74 -2366.11 5800 3131.93 -2378.32 5800 
3144.59 -2366.07 5800 2007.07 -2353.11 5800 3158.03 -2353.07 5800 
2007.4 -2340.11 5800 3160.93 -2350.27 5800 3171.47 -2340.07 5800 
2007.73 -2327.11 5800 3184.91 -2327.07 5800 2008.06 -2314.11 5800 
3189.93 -2322.22 5800 3196.1 -2314.07 5800 2008.39 -2301.11 5800 
3202.51 -2301.07 5800 2008.71 -2288.11 5800 3204.31 -2288.07 5800 
2009.04 -2275.11 5800 3205.79 -2275.06 5800 2009.37 -2262.1 5800 
3207.26 -2262.06 5800 2009.7 -2249.1 5800 3208.74 -2249.06 5800 
2010.03 -2236.1 5800 3210.21 -2236.06 5800 2010.36 -2223.1 5800 
3211.69 -2223.06 5800 2010.69 -2210.1 5800 3213.16 -2210.06 5800 
2011.02 -2197.1 5800 3214.64 -2197.06 5800 2011.35 -2184.1 5800 
3216.11 -2184.06 5800 2011.68 -2171.1 5800 3217.59 -2171.06 5800 
2012.01 -2158.1 5800 3218.95 -2159.11 5800 3219.06 -2158.05 5800 
2012.34 -2145.1 5800 3220.54 -2145.05 5800 2012.76 -2132.09 5800 
3222.02 -2132.05 5800 2013.16 -2119.09 5800 3223.49 -2119.05 5800 
2013.57 -2106.09 5800 3224.97 -2106.05 5800 2013.99 -2093.09 5800 
3226.44 -2093.05 5800 2014.46 -2080.09 5800 3227.92 -2080.05 5800 
2014.92 -2067.09 5800 3229.39 -2067.05 5800 2015.38 -2054.09 5800 
3230.87 -2054.05 5800 2015.85 -2041.09 5800 3232.34 -2041.05 5800 
2013.97 -2028.09 5800 3233.82 -2028.04 5800 2011.03 -2015.09 5800 
3235.29 -2015.04 5800 2008.1 -2002.08 5800 3236.77 -2002.04 5800 
2005.16 -1989.08 5800 3238.25 -1989.04 5800 2002.22 -1976.08 5800 
3239.72 -1976.04 5800 1999.29 -1963.08 5800 2000.92 -1970.29 5800 
3241.2 -1963.04 5800 1996.35 -1950.08 5800 3242.61 -1950.04 5800 
1993.42 -1937.08 5800 3243.96 -1937.04 5800 1990.48 -1924.08 5800 
3245.03 -1924.04 5800 1987.54 -1911.08 5800 3246.1 -1911.04 5800 
1984.61 -1898.08 5800 3247.17 -1898.03 5800 1981.67 -1885.08 5800 
3247.97 -1888.4 5800 3248.24 -1885.03 5800 1978.74 -1872.08 5800 
3249.31 -1872.03 5800 1975.8 -1859.07 5800 3250.38 -1859.03 5800 
1972.86 -1846.07 5800 3251.45 -1846.03 5800 1969.93 -1833.07 5800 
1971.93 -1841.93 5800 3252.53 -1833.03 5800 1966.99 -1820.07 5800 
3253.6 -1820.03 5800 1964.05 -1807.07 5800 3254.67 -1807.03 5800 
1961.12 -1794.07 5800 3255.74 -1794.03 5800 1958.18 -1781.07 5800 
3256.81 -1781.02 5800 1955.25 -1768.07 5800 3257.88 -1768.02 5800 
1952.31 -1755.07 5800 3258.95 -1755.02 5800 1951.81 -1742.07 5800 
3260.02 -1742.02 5800 1954.3 -1729.07 5800 3261.1 -1729.02 5800 
1955.88 -1716.06 5800 3261.95 -1716.02 5800 1958.8 -1703.06 5800 
3262.78 -1703.02 5800 1962.3 -1690.06 5800 3263.58 -1690.02 5800 
1965.79 -1677.06 5800 3264.36 -1677.02 5800 1969.29 -1664.06 5800 
3265.12 -1664.02 5800 1971.94 -1654.22 5800 1972.84 -1651.06 5800 
3265.86 -1651.01 5800 1976.5 -1638.06 5800 3266.57 -1638.01 5800 
1980.15 -1625.06 5800 3267.27 -1625.01 5800 1983.78 -1612.06 5800 
3267.94 -1612.01 5800 1987.39 -1599.05 5800 3268.6 -1599.01 5800 
1990.99 -1586.05 5800 3271.31 -1586.01 5800 1994.56 -1573.05 5800 
3270.34 -1573.01 5800 1998.13 -1560.05 5800 3270.23 -1560.01 5800 
2000.95 -1549.69 5800 2001.69 -1547.05 5800 3270.08 -1547.01 5800 
2005.36 -1534.05 5800 3271 -1534.01 5800 2009.03 -1521.05 5800 
3271.59 -1521 5800 2012.7 -1508.05 5800 3272.02 -1508 5800 
2015.78 -1495.05 5800 3272.44 -1495 5800 2016.68 -1482.04 5800 
3272.87 -1482 5800 2017.7 -1469.04 5800 3273.29 -1469 5800 
2018.74 -1456.04 5800 3273.72 -1456 5800 2019.74 -1443.04 5800 
3274.14 -1443 5800 2020.8 -1430.04 5800 3274.56 -1430 5800 
2022.13 -1417.04 5800 3274.99 -1417 5800 2023.45 -1404.04 5800 
3275.41 -1403.99 5800 2024.78 -1391.04 5800 3275.84 -1390.99 5800 
2026.11 -1378.04 5800 3276.26 -1377.99 5800 2027.43 -1365.04 5800 
3276.69 -1364.99 5800 2028.76 -1352.03 5800 3277.01 -1355.17 5800 
3277.11 -1351.99 5800 2029.97 -1340.2 5800 2030.09 -1339.03 5800 
3277.54 -1338.99 5800 2031.15 -1326.03 5800 3277.96 -1325.99 5800 
2031.95 -1313.03 5800 3278.39 -1312.99 5800 2032.75 -1300.03 5800 
3278.81 -1299.99 5800 2033.55 -1287.03 5800 3279.24 -1286.99 5800 
2034.34 -1274.03 5800 3279.66 -1273.98 5800 2035.14 -1261.03 5800 
3280.08 -1260.98 5800 2035.94 -1248.03 5800 3280.51 -1247.98 5800 
2036.77 -1235.02 5800 3280.93 -1234.98 5800 2036.81 -1222.02 5800 
3281.36 -1221.98 5800 2036.84 -1209.02 5800 3281.78 -1208.98 5800 
2036.87 -1196.02 5800 3282.21 -1195.98 5800 2036.89 -1183.02 5800 
3282.63 -1182.98 5800 2036.91 -1170.02 5800 3283.07 -1169.98 5800 
2036.92 -1157.02 5800 3283.53 -1156.98 5800 2036.94 -1144.02 5800 
3283.98 -1143.97 5800 2036.95 -1131.02 5800 3284.44 -1130.97 5800 
2036.86 -1118.02 5800 3284.91 -1117.97 5800 2035.63 -1105.01 5800 
3285.43 -1104.97 5800 2034.41 -1092.01 5800 3285.9 -1091.97 5800 
2033.07 -1079.01 5800 3285.97 -1078.97 5800 2029.74 -1066.01 5800 
2029.99 -1066.97 5800 3286.19 -1065.97 5800 2029.99 -1065 5800 
2032.34 -1053.01 5800 3286.42 -1052.97 5800 2034.12 -1040.01 5800 
3286.65 -1039.97 5800 2035.88 -1027.01 5800 3286.87 -1026.97 5800 
2037.9 -1014.01 5800 3287.09 -1013.96 5800 2039.91 -1001.01 5800 
3287.3 -1000.96 5800 2041.93 -988.006 5800 3287.61 -987.963 5800 
2043.95 -975.005 5800 3287.92 -974.962 5800 2045.96 -962.003 5800 
2577.66 -961.985 5800 2581.01 -962.624 5800 2583.37 -961.985 5800 
3288.23 -961.961 5800 2047.98 -949.002 5800 2541.14 -948.985 5800 
2552.01 -956.889 5800 2610.02 -950.768 5800 2630.87 -948.982 5800 
3287.93 -948.96 5800 2049.99 -936.001 5800 2524.69 -935.985 5800 
2639.02 -948.285 5800 2668.02 -945.801 5800 2697.02 -943.672 5800 
2726.02 -942.172 5800 2755.02 -936.729 5800 2755.4 -935.977 5800 
3286.88 -935.959 5800 2051.91 -923 5800 2504.76 -922.985 5800 
2523.01 -934.704 5800 2761.72 -922.976 5800 3286.05 -922.958 5800 
2053.88 -909.999 5800 2486.47 -909.984 5800 2494.02 -914.417 5800 
2768.06 -909.975 5800 3284.17 -909.957 5800 2055.91 -896.998 5800 
2464.35 -896.984 5800 2465.02 -897.377 5800 2774.39 -896.973 5800 
3281.4 -896.956 5800 2058 -883.997 5800 2442.22 -883.984 5800 
2780.73 -883.972 5800 3278.64 -883.955 5800 2059 -877.91 5800 
2060.08 -870.996 5800 2420.1 -870.984 5800 2436.02 -880.337 5800 
2784.03 -877.197 5800 2787.12 -870.971 5800 3277.05 -876.455 5800 
3275.88 -870.954 5800 2062.09 -857.995 5800 2406.34 -857.983 5800 
2407.02 -859.567 5800 2793.4 -857.97 5800 3273.11 -857.953 5800 
2064.11 -844.994 5800 2400.94 -844.982 5800 2799.73 -844.968 5800 
3270.35 -844.952 5800 2066.1 -831.993 5800 2395.54 -831.981 5800 
2806.07 -831.967 5800 3267.59 -831.951 5800 2068.04 -818.992 5800 
2387.88 -818.981 5800 2812.4 -818.966 5800 3264.82 -818.95 5800 
2070 -805.991 5800 2378.44 -805.98 5800 2813.03 -817.666 5800 
2818.86 -805.965 5800 3262.06 -805.95 5800 2071.93 -792.99 5800 
[...]
POINT_DATA 6394
SCALARS Pressure double
LOOKUP_TABLE default
3.0932710339 3.0932710339 3.0932710339 3.0932710339 3.0932710339 3.0932710339 3.0932710339 3.0932710339 3.0932710339 
3.0932710339 3.0932710339 3.0932710339 3.0932710339 3.0932710339 3.0932710339 3.0932710339 3.0932710339 3.0932710339 
3.0932710339 3.0932710339 3.0932710339 3.0932710339 3.0932710339 3.0932710339 3.0932710339 3.0932710339 3.0932710339 
3.0932710339 3.0932710339 3.0932710339 3.0932710339 3.0932710339 3.0932710339 3.0932710339 3.0932710339 3.0932710339 
3.0932710339 3.0932710339 3.0932710339 3.0932710339 3.0932710339 3.0932710339 3.0932710339 3.0932710339 3.0932710339 
3.0932710339 3.0932710339 3.0932710339 3.0932710339 3.0932710339 3.0932710339 3.0932710339 3.0932710339 3.0932710339 
3.0932710339 3.0932710339 3.0932710339 3.0932710339 3.0932710339 3.0932710339 3.0932710339 3.0932710339 3.0932710339 
3.0932710339 3.0932710339 3.0932710339 3.0932710339 3.0932710339 3.0932710339 3.0932710339 3.0932710339 3.0932710339 
3.0932710339 3.0932710339 3.0932710339 3.0932710339 3.0932710339 3.0932710339 3.0932710339 3.0932710339 3.0932710339 
3.0932710339 3.0932710339 3.0932710339 3.0932710339 3.0932710339 3.0932710339 3.0932710339 3.0932710339 3.0932710339 
3.0932710339 3.0932710339 3.0932710339 3.0932710339 3.0932710339 3.0932710339 3.0932710339 3.0932710339 3.0932710339 
3.0932710339 3.0932710339 3.0932710339 3.0932710339 3.0932710339 3.0932710339 3.0932710339 3.0932710339 3.0932710339 
3.0932710339 3.0932710339 3.0932710339 3.0932710339 3.0932710339 3.0932710339 3.0932710339 3.0932710339 3.0932710339 
3.0932710339 3.0932710339 3.0932710339 3.0932710339 3.0932710339 3.0932710339 3.0932710339 3.0932710339 3.0932710339 
3.0932710339 3.0932710339 3.0932710339 3.0932710339 3.0932710339 3.0932710339 3.0932710339 3.0932710339 3.0932710339 
3.0932710339 3.0932710339 3.0932710339 3.0932710339 3.0932710339 3.0932710339 3.0932710339 3.0932710339 3.0932710339 
3.0932710339 3.0932710339 3.0932710339 3.0932710339 3.0932710339 3.0932710339 3.0932710339 3.0932710339 3.0932710339 
3.0932710339 3.0932710339 3.0932710339 3.0932710339 3.0932710339 3.0932710339 3.0932710339 3.0932710339 3.0932710339 
3.0932710339 3.0932710339 3.0932710339 3.0932710339 3.0932710339 3.0932710339 3.0932710339 3.0932710339 3.0932710339 
3.0932710339 3.0932710339 3.0932710339 3.0932710339 3.0932710339 3.0932710339 3.0932710339 3.0932710339 3.0932710339 
3.0932710339 3.0932710339 3.0932710339 3.0932710339 3.0932710339 3.0932710339 3.0932710339 3.0932710339 3.0932710339 
3.0932710339 3.0932710339 3.0932710339 3.0932710339 3.0932710339 3.0932710339 3.0932710339 3.0932710339 3.0932710339 
3.0932710339 3.0932710339 3.0932710339 3.0932710339 3.0932710339 3.0932710339 3.0932710339 3.0932710339 3.0932710339 
3.0932710339 3.0932710339 3.0932710339 3.0932710339 3.0932710339 3.0932710339 3.0932710339 3.0932710339 3.0932710339 
3.0932710339 3.0932710339 3.0932710339 3.0932710339 3.0932710339 3.0932710339 3.0932710339 3.0932710339 3.0932710339 
3.0932710339 3.0932710339 3.0932710339 3.0932710339 3.0932710339 3.0932710339 3.0932710339 3.0932710339 3.0932710339 
3.0932710339 3.0932710339 3.0932710339 3.0932710339 3.0932710339 3.0932710339 3.0932710339 3.0932710339 3.0932710339 
3.0932710339 3.0932710339 3.0932710339 3.0932710339 3.0932710339 3.0932710339 3.0932710339 3.0932710339 3.0932710339 
3.0932710339 3.0932710339 3.0932710339 3.0932710339 3.0932710339 3.0932710339 3.0932710339 3.0932710339 3.0932710339 
3.0932710339 3.0932710339 3.0932710339 3.0932710339 3.0932710339 3.0932710339 3.0932710339 3.0932710339 3.0932710339 
3.0932710339 3.0932710339 3.0932710339 3.0932710339 3.0932710339 3.0932710339 3.0932710339 3.0932710339 3.0932710339 
3.0932710339 3.0932710339 3.0932710339 3.0932710339 3.0932710339 3.0932710339 3.0932710339 3.0932710339 3.0932710339 
3.0932710339 3.0932710339 3.0932710339 3.0932710339 3.0932710339 3.0932710339 3.0932710339 3.0932710339 3.0932710339 
3.0932710339 3.0932710339 3.0932710339 3.0932710339 3.0932710339 3.0932710339 3.0932710339 3.0932710339 3.0932710339 
3.0932710339 3.0932710339 3.0932710339 3.0932710339 3.0932710339 3.0932710339 3.0932710339 3.0932710339 3.0932710339 
3.0932710339 3.0932710339 3.0932710339 3.0932710339 3.0932710339 3.0932710339 3.0932710339 3.0932710339 3.0932710339 
3.0932710339 3.0932710339 3.0932710339 3.0932710339 3.0932710339 3.0932710339 3.0932710339 3.0932710339 3.0932710339 
3.0932710339 3.0932710339 3.0932710339 3.0932710339 3.0932710339 3.0932710339 3.0932710339 3.0932710339 3.0932710339 
3.0932710339 3.0932710339 3.0932710339 3.0932710339 3.0932710339 3.0932710339 3.0932710339 3.0932710339 3.0932710339 
3.0932710339 3.0932710339 3.0932710339 3.0932710339 3.0932710339 3.0932710339 3.0932710339 3.0932710339 3.0932710339 
3.0932710339 3.0932710339 3.0932710339 3.0932710339 3.0932710339 3.0932710339 3.0932710339 3.0932710339 3.0932710339 
3.0932710339 3.0932710339 3.0932710339 3.0932710339 3.0932710339 3.0932710339 3.0932710339 3.0932710339 3.0932710339 
3.1078652246 3.1078652246 3.1078652246 3.0932710339 3.0932710339 3.1078652246 3.1078652246 3.1078652246 3.1078652246 
3.0932710339 3.0932710339 3.1078652246 3.1078652246 3.1078652246 3.1078652246 3.1078652246 3.1078652246 3.1078652246 
3.0932710339 3.0932710339 3.1078652246 3.1078652246 3.1078652246 3.0932710339 3.0932710339 3.1078652246 3.1078652246 
3.1078652246 3.0932710339 3.0932710339 3.1078652246 3.1078652246 3.1078652246 3.0932710339 3.0932710339 3.1078652246 
3.1078652246 3.0932710339 3.0932710339 3.0932710339 3.1078652246 3.1078652246 3.1078652246 3.1078652246 3.0932710339 
3.0932710339 3.0932710339 3.1078652246 3.1078652246 3.1078652246 3.0932710339 3.0932710339 3.1078652246 3.1078652246 
3.0932710339 3.0932710339 3.1078652246 3.1078652246 3.0932710339 3.0932710339 3.1078652246 3.1078652246 3.0932710339 
3.0932710339 3.1078652246 3.1078652246 3.1078652246 3.0932710339 3.0932710339 3.1078652246 3.1078652246 3.1078652246 
3.0932710339 3.0932710339 3.1078652246 3.1078652246 3.0932710339 3.0932710339 3.1078652246 3.1078652246 3.1078652246 
3.0932710339 3.0932710339 3.1078652246 3.1078652246 3.1078652246 3.0932710339 3.0932710339 3.1078652246 3.1078652246 
3.1078652246 3.0932710339 3.0932710339 3.0932710339 3.1078652246 3.1078652246 3.0932710339 3.0932710339 3.1078652246 
3.1078652246 3.1078652246 3.0932710339 3.0932710339 3.1078652246 3.1078652246 3.0932710339 3.0932710339 3.1078652246 
3.1078652246 3.1078652246 3.0932710339 3.0932710339 3.1078652246 3.1078652246 3.0932710339 3.0932710339 3.1078652246 
3.1078652246 3.0932710339 3.0932710339 3.1078652246 3.1078652246 3.0932710339 3.0932710339 3.1078652246 3.1078652246 
3.0932710339 3.0932710339 3.0932710339 3.1078652246 3.1078652246 3.1078652246 3.0932710339 3.0932710339 3.1078652246 
3.1078652246 3.1224594153 3.1224594153 3.1224594153 3.1078652246 3.0932710339 3.0932710339 3.1078652246 3.1224594153 
3.1224594153 3.1224594153 3.1078652246 3.0932710339 3.0932710339 3.1078652246 3.1224594153 3.1224594153 3.1224594153 
3.1224594153 3.1078652246 3.0932710339 3.0932710339 3.1078652246 3.1224594153 3.1224594153 3.1224594153 3.1224594153 
3.1224594153 3.1078652246 3.0932710339 3.0932710339 3.1078652246 3.1224594153 3.1224594153 3.1078652246 3.1078652246 
3.0932710339 3.0932710339 3.1078652246 3.1224594153 3.1224594153 3.1224594153 3.1224594153 3.1078652246 3.0932710339 
3.0932710339 3.1078652246 3.1224594153 3.1224594153 3.1224594153 3.1078652246 3.0932710339 3.0932710339 3.1078652246 
3.1078652246 3.1224594153 3.1224594153 3.1224594153 3.1078652246 3.0932710339 3.0932710339 3.1078652246 3.1224594153 
3.1224594153 3.1078652246 3.0932710339 3.0932710339 3.0786768432 3.0786768432 3.0786768432 3.0932710339 3.1078652246 
3.1224594153 3.1224594153 3.1224594153 3.1078652246 3.1078652246 3.0932710339 3.0786768432 3.0786768432 3.0786768432 
3.0786768432 3.0932710339 3.1078652246 3.1224594153 3.1224594153 3.1078652246 3.0932710339 3.0786768432 3.0786768432 
3.0786768432 3.0786768432 3.0786768432 3.0786768432 3.0786768432 3.0786768432 3.0786768432 3.0786768432 3.0932710339 
3.1078652246 3.1224594153 3.1224594153 3.1224594153 3.1224594153 3.1078652246 3.0932710339 3.0786768432 3.0786768432 
3.0786768432 3.0786768432 3.0786768432 3.0786768432 3.0786768432 3.0786768432 3.0932710339 3.1078652246 3.1224594153 
3.1224594153 3.1078652246 3.0932710339 3.0786768432 3.0786768432 3.0786768432 3.0786768432 3.0786768432 3.0786768432 
3.0786768432 3.0932710339 3.0932710339 3.1078652246 3.1224594153 3.1224594153 3.1224594153 3.1078652246 3.0932710339 
3.0786768432 3.0786768432 3.0786768432 3.0786768432 3.0786768432 3.0786768432 3.0932710339 3.1078652246 3.1224594153 
3.1224594153 3.1078652246 3.1078652246 3.0932710339 3.0786768432 3.0786768432 3.0786768432 3.0786768432 3.0786768432 
3.0786768432 3.0932710339 3.1078652246 3.1078652246 3.1224594153 3.1224594153 3.1224594153 3.1078652246 3.0932710339 
3.0786768432 3.0786768432 3.0786768432 3.0786768432 3.0786768432 3.0786768432 3.0932710339 3.1078652246 3.1224594153 
3.137053606 3.137053606 3.137053606 3.137053606 3.1224594153 3.1078652246 3.0932710339 3.0786768432 3.0786768432 
3.0786768432 3.0786768432 3.0932710339 3.1078652246 3.1224594153 3.137053606 3.137053606 3.137053606 3.137053606 
3.1224594153 3.1078652246 3.0932710339 3.0786768432 3.0786768432 3.0786768432 3.0786768432 3.0786768432 3.0786768432 
3.0932710339 3.1078652246 3.1224594153 3.1224594153 3.137053606 3.137053606 3.137053606 3.137053606 3.1224594153 
3.1224594153 3.1078652246 3.0932710339 3.0786768432 3.0786768432 3.0786768432 3.0786768432 3.0786768432 3.0786768432 
3.0786768432 3.0932710339 3.1078652246 3.1224594153 3.137053606 3.137053606 3.137053606 3.1224594153 3.1078652246 
3.0932710339 3.0786768432 3.0786768432 3.0786768432 3.0786768432 3.0786768432 3.0932710339 3.1078652246 3.1224594153 
3.137053606 3.137053606 3.1224594153 3.1078652246 3.1078652246 3.0932710339 3.0786768432 3.0786768432 3.0786768432 
3.0786768432 3.0786768432 3.0786768432 3.0932710339 3.1078652246 3.1224594153 3.137053606 3.137053606 3.137053606 
3.137053606 3.1224594153 3.1078652246 3.0932710339 3.0786768432 3.0786768432 3.0786768432 3.0786768432 3.0786768432 
3.0932710339 3.1078652246 3.1224594153 3.137053606 3.137053606 3.1224594153 3.1224594153 3.1078652246 3.0932710339 
3.0786768432 3.0786768432 3.0786768432 3.0786768432 3.0786768432 3.0786768432 3.0932710339 3.1078652246 3.1224594153 
3.1224594153 3.137053606 3.137053606 3.1224594153 3.1078652246 3.0932710339 3.0786768432 3.0786768432 3.0786768432 
3.0786768432 3.0786768432 3.0932710339 3.1078652246 3.1224594153 3.137053606 3.137053606 3.137053606 3.137053606 
3.1224594153 3.1078652246 3.0932710339 3.0786768432 3.0786768432 3.0786768432 3.0786768432 3.0786768432 3.0932710339 
3.1078652246 3.1224594153 3.137053606 3.137053606 3.1224594153 3.1078652246 3.0932710339 3.0786768432 3.0786768432 
3.0786768432 3.0786768432 3.0932710339 3.1078652246 3.1224594153 3.137053606 3.137053606 3.1224594153 3.1078652246 
3.0932710339 3.0786768432 3.0786768432 3.0786768432 3.0786768432 3.0786768432 3.0786768432 3.0932710339 3.1078652246 
3.1078652246 3.1224594153 3.137053606 3.137053606 3.1516477967 3.1516477967 3.1516477967 3.1516477967 3.137053606 
3.1224594153 3.1224594153 3.1078652246 3.0932710339 3.0786768432 3.0786768432 3.0786768432 3.0786768432 3.0786768432 
3.0932710339 3.1078652246 3.1224594153 3.1224594153 3.137053606 3.1516477967 3.1516477967 3.1516477967 3.1516477967 
3.137053606 3.137053606 3.1224594153 3.1078652246 3.1078652246 3.0932710339 3.0786768432 3.0786768432 3.0786768432 
3.0786768432 3.0932710339 3.1078652246 3.1224594153 3.137053606 3.1516477967 3.1516477967 3.1516477967 3.137053606 
3.1224594153 3.1078652246 3.0932710339 3.0786768432 3.0786768432 3.0786768432 3.0786768432 3.0932710339 3.1078652246 
3.1224594153 3.137053606 3.137053606 3.1516477967 3.1516477967 3.1516477967 3.1516477967 3.137053606 3.1224594153 
3.1078652246 3.0932710339 3.0786768432 3.0786768432 3.0786768432 3.0786768432 3.0786768432 3.0932710339 3.0932710339 
3.1078652246 3.1224594153 3.137053606 3.1516477967 3.1516477967 3.137053606 3.1224594153 3.1078652246 3.0932710339 
3.0786768432 3.0786768432 3.0786768432 3.0786768432 3.0640826525 3.0640826525 3.0640826525 3.0640826525 3.0640826525 
3.0786768432 3.0932710339 3.1078652246 3.1224594153 3.137053606 3.1516477967 3.1516477967 3.1516477967 3.1516477967 
3.137053606 3.137053606 3.1224594153 3.1078652246 3.0932710339 3.0786768432 3.0786768432 3.0786768432 3.0786768432 
3.0640826525 3.0640826525 3.0640826525 3.0640826525 3.0640826525 3.0640826525 3.0786768432 3.0932710339 3.0932710339 
3.1078652246 3.1224594153 3.1224594153 3.137053606 3.137053606 3.1516477967 3.1516477967 3.137053606 3.1224594153 
3.1078652246 3.0932710339 3.0786768432 3.0786768432 3.0786768432 3.0640826525 3.0640826525 3.0640826525 3.0786768432 
3.0932710339 3.1078652246 3.1224594153 3.137053606 3.1516477967 3.1516477967 3.1516477967 3.137053606 3.1224594153 
3.1078652246 3.0932710339 3.0786768432 3.0786768432 3.0786768432 3.0786768432 3.0640826525 3.0640826525 3.0786768432 
3.0932710339 3.1078652246 3.1224594153 3.137053606 3.1516477967 3.1516477967 3.137053606 3.1224594153 3.1078652246 
3.0932710339 3.0786768432 3.0786768432 3.0786768432 3.0640826525 3.0640826525 3.0640826525 3.0640826525 3.0786768432 
3.0932710339 3.1078652246 3.1224594153 3.137053606 3.137053606 3.1516477967 3.1516477967 3.1516477967 3.137053606 
3.1224594153 3.1078652246 3.0932710339 3.0786768432 3.0786768432 3.0786768432 3.0786768432 3.0786768432 3.0640826525 
3.0640826525 3.0786768432 3.0932710339 3.1078652246 3.1224594153 3.137053606 3.1516477967 3.1662419875 3.1662419875 
3.1662419875 3.1662419875 3.1662419875 3.1516477967 3.137053606 3.1224594153 3.1078652246 3.0932710339 3.0786768432 
3.0786768432 3.0786768432 3.0640826525 3.0640826525 3.0786768432 3.0932710339 3.1078652246 3.1224594153 3.137053606 
3.1516477967 3.1662419875 3.1662419875 3.1662419875 3.1662419875 3.1516477967 3.137053606 3.1224594153 3.1078652246 
3.1078652246 3.0932710339 3.0786768432 3.0786768432 3.0786768432 3.0640826525 3.0494884618 3.0494884618 3.0494884618 
3.0494884618 3.0640826525 3.0786768432 3.0786768432 3.0932710339 3.1078652246 3.1078652246 3.1224594153 3.1224594153 
3.137053606 3.1516477967 3.1516477967 3.1662419875 3.1662419875 3.1662419875 3.1516477967 3.137053606 3.1224594153 
3.1078652246 3.0932710339 3.0786768432 3.0786768432 3.0786768432 3.0786768432 3.0786768432 3.0786768432 3.0786768432 
3.0786768432 3.0786768432 3.0640826525 3.0640826525 3.0494884618 3.0494884618 3.0494884618 3.0494884618 3.0640826525 
3.0640826525 3.0786768432 3.0932710339 3.1078652246 3.1224594153 3.137053606 3.137053606 3.1516477967 3.1662419875 
3.1662419875 3.1516477967 3.137053606 3.1224594153 3.1078652246 3.0932710339 3.0932710339 3.0786768432 3.0640826525 
3.0640826525 3.0640826525 3.0786768432 3.0786768432 3.0786768432 3.0640826525 3.0494884618 3.0494884618 3.0494884618 
3.0640826525 3.0786768432 3.0932710339 3.1078652246 3.1224594153 3.137053606 3.1516477967 3.1662419875 3.1662419875 
3.1662419875 3.1516477967 3.137053606 3.1224594153 3.1078652246 3.0932710339 3.0786768432 3.0786768432 3.0640826525 
3.0640826525 3.0640826525 3.0640826525 3.0786768432 3.0786768432 3.0786768432 3.0640826525 3.0494884618 3.0494884618 
3.0494884618 3.0640826525 3.0786768432 3.0932710339 3.1078652246 3.1224594153 3.137053606 3.1516477967 3.1516477967 
3.1662419875 3.1662419875 3.1662419875 3.1516477967 3.137053606 3.137053606 3.1224594153 3.1078652246 3.0932710339 
3.0786768432 3.0640826525 3.0640826525 3.0640826525 3.0640826525 3.0786768432 3.0786768432 3.0640826525 3.0494884618 
3.0348942711 3.0348942711 3.0348942711 3.0348942711 3.0494884618 3.0640826525 3.0786768432 3.0932710339 3.1078652246 
3.1224594153 3.137053606 3.1516477967 3.1662419875 3.1662419875 2.9619233175 2.9619233175 2.9765175082 2.9765175082 
2.991111699 2.991111699 3.0057058897 3.0057058897 3.0203000804 3.0203000804 3.0348942711 3.0348942711 3.0494884618 
3.0494884618 3.0640826525 3.0640826525 3.0786768432 3.0786768432 3.0932710339 3.0932710339 3.1078652246 3.1078652246 
3.1224594153 3.1224594153 3.137053606 3.137053606 3.1516477967 3.1516477967 3.1662419875 3.1662419875 2.9619233175 
2.9765175082 2.991111699 3.0057058897 3.0203000804 3.0348942711 3.0494884618 3.0640826525 3.0786768432 3.0932710339 
3.1078652246 3.1224594153 3.137053606 3.1516477967 3.1662419875 2.9619233175 2.9765175082 2.991111699 3.0057058897 
3.0203000804 3.0348942711 3.0494884618 3.0640826525 3.0786768432 3.0932710339 3.1078652246 3.1224594153 3.137053606 
3.1516477967 3.1662419875 2.9619233175 2.9765175082 2.991111699 3.0057058897 3.0203000804 3.0348942711 3.0494884618 
3.0640826525 3.0786768432 3.0932710339 3.1078652246 3.1224594153 3.137053606 3.1516477967 3.1662419875 2.9619233175 
2.9765175082 2.991111699 3.0057058897 3.0203000804 3.0348942711 3.0494884618 3.0640826525 3.0786768432 3.0932710339 
3.1078652246 3.1224594153 3.137053606 3.1516477967 3.1662419875 2.9619233175 2.9765175082 2.991111699 3.0057058897 
3.0203000804 3.0348942711 3.0494884618 3.0640826525 3.0786768432 3.0932710339 3.1078652246 3.1224594153 3.137053606 
3.1516477967 3.1516477967 3.137053606 3.1224594153 3.1078652246 3.0932710339 3.0786768432 3.0640826525 3.0640826525 
3.0640826525 3.0786768432 3.0786768432 3.0786768432 3.0640826525 3.0494884618 3.0348942711 3.0348942711 3.0348942711 
3.0494884618 3.0494884618 3.0640826525 3.0786768432 3.0786768432 3.0932710339 3.1078652246 3.1224594153 3.1224594153 
3.137053606 3.137053606 2.9619233175 2.9619233175 2.9765175082 2.9765175082 2.991111699 2.991111699 3.0057058897 
3.0057058897 3.0203000804 3.0203000804 3.0348942711 3.0348942711 3.0494884618 3.0494884618 3.0640826525 3.0640826525 
3.0786768432 3.0786768432 3.0932710339 3.0932710339 3.1078652246 3.1078652246 3.1224594153 3.1224594153 3.137053606 
3.137053606 2.9619233175 2.9765175082 2.991111699 3.0057058897 3.0203000804 3.0348942711 3.0494884618 3.0640826525 
3.0786768432 3.0932710339 3.1078652246 3.1224594153 3.137053606 3.1516477967 2.9619233175 2.9765175082 2.991111699 
3.0057058897 3.0203000804 3.0348942711 3.0494884618 3.0640826525 3.0786768432 3.0932710339 3.1078652246 3.1224594153 
3.137053606 3.1516477967 2.9619233175 2.9765175082 2.991111699 3.0057058897 3.0203000804 3.0348942711 3.0494884618 
3.0640826525 3.0786768432 3.0932710339 3.1078652246 3.1224594153 3.137053606 3.1516477967 3.1662419875 2.9619233175 
2.9765175082 2.991111699 3.0057058897 3.0203000804 3.0348942711 3.0494884618 3.0640826525 3.0786768432 3.0932710339 
3.1078652246 3.1224594153 3.137053606 3.1516477967 3.1662419875 2.9619233175 2.9765175082 2.991111699 3.0057058897 
3.0203000804 3.0348942711 3.0494884618 3.0640826525 3.0786768432 3.0932710339 3.1078652246 3.1224594153 3.137053606 
3.1516477967 3.1662419875 2.9619233175 2.9765175082 2.991111699 3.0057058897 3.0203000804 3.0348942711 3.0494884618 
3.0640826525 3.0786768432 3.0932710339 3.1078652246 3.1224594153 3.137053606 3.1516477967 3.1662419875 2.9619233175 
2.9765175082 2.991111699 3.0057058897 3.0203000804 3.0348942711 3.0494884618 3.0640826525 3.0786768432 3.0932710339 
3.1078652246 3.1224594153 3.137053606 3.1516477967 2.9619233175 2.9765175082 2.991111699 3.0057058897 3.0203000804 
3.0348942711 3.0494884618 3.0640826525 3.0786768432 3.0932710339 3.1078652246 3.1224594153 3.137053606 3.1516477967 
2.9619233175 2.9765175082 2.991111699 3.0057058897 3.0203000804 3.0348942711 3.0494884618 3.0640826525 3.0786768432 
3.0932710339 3.1078652246 3.1224594153 3.137053606 2.9619233175 2.9765175082 2.991111699 3.0057058897 3.0203000804 
3.0348942711 3.0494884618 3.0640826525 3.0786768432 3.0932710339 3.1078652246 3.1224594153 3.137053606 2.9619233175 
2.9765175082 2.991111699 3.0057058897 3.0203000804 3.0348942711 3.0494884618 3.0640826525 3.0786768432 3.0932710339 