# vtk DataFile Version 4.2
vtk output
ASCII
DATASET POLYDATA
POINTS 7056 float
1544.48 -3298.15 0 1553.85 -3313.6 0 1590.85 -3307.67 0 
1610.44 -3298.15 0 1534.18 -3281.15 0 1627.85 -3289.7 0 
1645.46 -3281.15 0 1523.88 -3264.15 0 1664.85 -3271.73 0 
1680.47 -3264.15 0 1513.57 -3247.15 0 1516.85 -3252.55 0 
1701.85 -3253.76 0 1715.48 -3247.14 0 1503.27 -3230.15 0 
1738.86 -3235.79 0 1750.49 -3230.14 0 1492.97 -3213.15 0 
1775.86 -3217.83 0 1785.51 -3213.14 0 1482.66 -3196.15 0 
1812.86 -3199.86 0 1820.52 -3196.14 0 1472.36 -3179.15 0 
1479.85 -3191.51 0 1849.86 -3181.89 0 1855.53 -3179.14 0 
1462.06 -3162.15 0 1886.86 -3163.92 0 1890.54 -3162.14 0 
1451.75 -3145.15 0 1923.87 -3145.95 0 1925.56 -3145.13 0 
1441.45 -3128.15 0 1442.85 -3130.46 0 1960.57 -3128.13 0 
1431.15 -3111.14 0 1960.87 -3127.99 0 1995.58 -3111.13 0 
1420.84 -3094.14 0 1997.87 -3110.02 0 2030.6 -3094.13 0 
1410.54 -3077.14 0 2034.87 -3092.05 0 2065.61 -3077.13 0 
1400.24 -3060.14 0 1405.86 -3069.42 0 2071.88 -3075.15 0 
2108.88 -3068.85 0 2145.88 -3064.42 0 2181.73 -3060.12 0 
1389.93 -3043.14 0 2182.88 -3059.98 0 2219.88 -3055.55 0 
2256.88 -3051.12 0 2293.88 -3046.69 0 2298.42 -3043.12 0 
1379.63 -3026.14 0 2312.71 -3026.12 0 1369.33 -3009.14 0 
2320.76 -3009.11 0 1359.02 -2992.14 0 1368.86 -3008.37 0 
2325.46 -2992.11 0 1348.72 -2975.14 0 2329.13 -2975.11 0 
1338.42 -2958.14 0 2330.89 -2966.95 0 2332.79 -2958.11 0 
1328.11 -2941.14 0 1331.86 -2947.33 0 2336.46 -2941.11 0 
1317.81 -2924.14 0 2340.13 -2924.11 0 1287.6 -2907.14 0 
1294.86 -2911.15 0 2343.79 -2907.11 0 1243.32 -2890.14 0 
1257.86 -2895.72 0 2347.46 -2890.11 0 1199.04 -2873.14 0 
1220.86 -2881.52 0 2351.13 -2873.11 0 1154.76 -2856.14 0 
1183.86 -2867.31 0 2354.79 -2856.1 0 1110.48 -2839.14 0 
1146.86 -2853.11 0 2358.46 -2839.1 0 1066.2 -2822.14 0 
1072.86 -2824.69 0 1109.86 -2838.9 0 2362.12 -2822.1 0 
1026.25 -2805.14 0 1035.86 -2810.49 0 2365.79 -2805.1 0 
1000.45 -2788.14 0 2367.9 -2795.32 0 2369.46 -2788.1 0 
977.351 -2771.14 0 998.863 -2786.97 0 2373.12 -2771.1 0 
959.061 -2754.14 0 961.864 -2759.74 0 2376.79 -2754.1 0 
950.701 -2737.14 0 2380.45 -2737.1 0 942.562 -2720.13 0 
2384.12 -2720.1 0 934.635 -2703.13 0 2387.79 -2703.09 0 
926.911 -2686.13 0 2391.45 -2686.09 0 920.183 -2669.13 0 
924.867 -2681.56 0 2395.12 -2669.09 0 913.776 -2652.13 0 
2398.78 -2652.09 0 907.369 -2635.13 0 2402.45 -2635.09 0 
900.961 -2618.13 0 2404.91 -2623.68 0 2406.12 -2618.09 0 
894.554 -2601.13 0 2409.78 -2601.09 0 888.147 -2584.13 0 
2413.45 -2584.09 0 881.74 -2567.13 0 887.872 -2583.4 0 
2417.11 -2567.09 0 875.333 -2550.13 0 2420.78 -2550.08 0 
868.926 -2533.13 0 2424.45 -2533.08 0 862.518 -2516.12 0 
2428.11 -2516.08 0 856.111 -2499.12 0 2431.78 -2499.08 0 
849.704 -2482.12 0 850.877 -2485.24 0 2435.45 -2482.08 0 
843.297 -2465.12 0 2439.11 -2465.08 0 836.89 -2448.12 0 
2441.92 -2452.05 0 2442.78 -2448.08 0 830.482 -2431.12 0 
2446.44 -2431.08 0 824.075 -2414.12 0 2450.11 -2414.08 0 
817.668 -2397.12 0 2453.78 -2397.07 0 811.261 -2380.12 0 
813.882 -2387.07 0 2457.44 -2380.07 0 804.854 -2363.12 0 
2461.11 -2363.07 0 798.447 -2346.12 0 2464.77 -2346.07 0 
792.039 -2329.12 0 2468.44 -2329.07 0 785.632 -2312.11 0 
2472.11 -2312.07 0 779.225 -2295.11 0 2475.77 -2295.07 0 
772.818 -2278.11 0 776.886 -2288.91 0 2478.93 -2280.41 0 
2479.44 -2278.07 0 766.411 -2261.11 0 2483.1 -2261.07 0 
760.003 -2244.11 0 2486.77 -2244.06 0 753.596 -2227.11 0 
2490.44 -2227.06 0 747.189 -2210.11 0 2496.46 -2210.06 0 
740.782 -2193.11 0 2509.02 -2193.06 0 734.407 -2176.11 0 
739.891 -2190.75 0 2515.94 -2183.72 0 2521.61 -2176.06 0 
729.168 -2159.11 0 2534.19 -2159.06 0 726.905 -2142.11 0 
2546.78 -2142.06 0 724.675 -2125.11 0 2552.94 -2133.73 0 
2556.12 -2125.06 0 722.446 -2108.1 0 2555.82 -2108.05 0 
720.216 -2091.1 0 2554.87 -2091.05 0 717.986 -2074.1 0 
2553.91 -2074.05 0 715.756 -2057.1 0 2552.95 -2057.05 0 
713.526 -2040.1 0 2552.95 -2057 0 2551.99 -2040.05 0 
711.296 -2023.1 0 2551.04 -2023.05 0 709.066 -2006.1 0 
2550.08 -2006.05 0 706.836 -1989.1 0 2549.12 -1989.05 0 
704.606 -1972.1 0 2548.16 -1972.05 0 702.376 -1955.1 0 
702.904 -1959.12 0 2547.21 -1955.05 0 700.146 -1938.1 0 
2546.25 -1938.05 0 697.916 -1921.09 0 2545.29 -1921.04 0 
695.686 -1904.09 0 2544.33 -1904.04 0 693.456 -1887.09 0 
2543.38 -1887.04 0 691.226 -1870.09 0 2542.42 -1870.04 0 
688.996 -1853.09 0 2541.46 -1853.04 0 686.766 -1836.09 0 
2540.5 -1836.04 0 684.536 -1819.09 0 2539.55 -1819.04 0 
682.306 -1802.09 0 2538.59 -1802.04 0 680.076 -1785.09 0 
2537.63 -1785.04 0 677.83 -1768.09 0 2536.67 -1768.04 0 
676.388 -1751.08 0 2535.72 -1751.03 0 675.026 -1734.08 0 
2534.76 -1734.03 0 673.74 -1717.08 0 2533.8 -1717.03 0 
671.769 -1700.08 0 2532.84 -1700.03 0 669.854 -1683.08 0 
2531.89 -1683.03 0 668.324 -1666.08 0 2530.93 -1666.03 0 
667.202 -1649.08 0 2529.97 -1649.03 0 664.631 -1632.08 0 
665.922 -1638.69 0 2529.01 -1632.03 0 659.401 -1615.08 0 
2528.06 -1615.03 0 -481.107 -1601.52 0 -487.871 -1598.11 0 
-444.106 -1602.41 0 -429.88 -1598.11 0 655.25 -1598.08 0 
2527.1 -1598.03 0 -518.107 -1582.85 0 -521.567 -1581.11 0 
-407.105 -1591.21 0 -373.689 -1581.1 0 651.876 -1581.08 0 
2526.14 -1581.02 0 -555.107 -1564.19 0 -555.263 -1564.11 0 
-370.103 -1580.02 0 -333.101 -1568.82 0 -317.498 -1564.1 0 
649.078 -1564.07 0 2526.25 -1564.02 0 -588.959 -1547.11 0 
-296.1 -1557.63 0 -261.307 -1547.1 0 646.722 -1547.07 0 
2527.33 -1547.02 0 -592.107 -1545.52 0 -622.655 -1530.11 0 
-259.098 -1546.43 0 -222.096 -1535.23 0 -205.116 -1530.1 0 
643.245 -1530.07 0 1316.81 -1530.05 0 1331.95 -1535.69 0 
1368.95 -1536.16 0 1405.95 -1536.63 0 1442.95 -1537.1 0 
1479.95 -1537.57 0 1516.95 -1538.04 0 1553.95 -1538.51 0 
1590.95 -1538.11 0 1602.74 -1530.05 0 2528.49 -1530.02 0 
-629.107 -1526.85 0 -656.35 -1513.11 0 -185.095 -1524.04 0 
-148.925 -1513.09 0 639.595 -1513.07 0 1280.08 -1513.05 0 
1294.95 -1520.46 0 1621.74 -1513.05 0 2529.64 -1513.02 0 
-666.107 -1508.18 0 -690.046 -1496.11 0 -148.093 -1512.84 0 
-111.091 -1501.65 0 -92.8906 -1496.09 0 635.945 -1496.07 0 
1252.25 -1496.05 0 1257.95 -1502.03 0 1627.96 -1507.49 0 
1640.74 -1496.04 0 2530.8 -1496.02 0 -703.107 -1489.52 0 
-723.742 -1479.11 0 -74.0897 -1490.39 0 -63.2321 -1479.09 0 
632.295 -1479.07 0 1233.96 -1479.05 0 1659.75 -1479.04 0 
2531.95 -1479.02 0 -740.106 -1467.3 0 -744.215 -1462.11 0 
-40.3527 -1462.09 0 628.629 -1462.07 0 628.931 -1463.4 0 
1214.79 -1462.05 0 1220.95 -1468.68 0 1664.96 -1474.38 0 
1679.56 -1462.04 0 2533.11 -1462.02 0 -756.015 -1445.11 0 
-37.0869 -1459.86 0 -26.3849 -1445.09 0 624.995 -1445.07 0 
1198.98 -1445.05 0 1699.27 -1445.04 0 2534.27 -1445.02 0 
-767.815 -1428.1 0 -14.067 -1428.08 0 621.344 -1428.07 0 
1183.18 -1428.05 0 1183.95 -1428.88 0 1701.96 -1442.69 0 
1720.44 -1428.04 0 2535.42 -1428.02 0 -777.104 -1414.72 0 
-779.614 -1411.1 0 -1.74908 -1411.08 0 617.694 -1411.07 0 
1167.37 -1411.05 0 1738.96 -1413.36 0 1741.89 -1411.04 0 
2536.58 -1411.01 0 -791.414 -1394.1 0 -0.0828647 -1408.78 0 
10.5688 -1394.08 0 614.044 -1394.07 0 1151.57 -1394.05 0 
1763.34 -1394.03 0 2537.73 -1394.01 0 -803.213 -1377.1 0 
22.8867 -1377.08 0 610.394 -1377.06 0 1135.76 -1377.05 0 
1146.95 -1389.08 0 1775.97 -1384.03 0 1780.61 -1377.03 0 
2538.89 -1377.01 0 -814.102 -1361.41 0 -815.013 -1360.1 0 
35.2047 -1360.08 0 606.744 -1360.06 0 1118.84 -1360.05 0 
1788.35 -1360.03 0 2536.9 -1360.01 0 -826.813 -1343.1 0 
36.9211 -1357.71 0 47.5225 -1343.08 0 603.094 -1343.06 0 
1096.9 -1343.05 0 1109.95 -1352.36 0 1795.15 -1343.03 0 
2535.22 -1343.01 0 -838.612 -1326.1 0 59.8404 -1326.08 0 
599.444 -1326.06 0 1073.07 -1326.05 0 1801.94 -1326.03 0 
2533.35 -1326.01 0 -850.412 -1309.1 0 72.1584 -1309.07 0 
594.11 -1309.06 0 1049.25 -1309.05 0 1072.95 -1325.96 0 
1808.74 -1309.03 0 2530 -1309.01 0 -851.1 -1308.11 0 
-862.211 -1292.1 0 73.9251 -1306.64 0 84.4763 -1292.07 0 
584.843 -1292.06 0 591.939 -1305.08 0 1025.42 -1292.05 0 
1035.95 -1299.56 0 1812.97 -1298.45 0 1815.54 -1292.03 0 
2526.65 -1292.01 0 -874.011 -1275.1 0 96.7942 -1275.07 0 
577.142 -1275.06 0 1001.6 -1275.05 0 1822.34 -1275.03 0 
2523.3 -1275.01 0 -885.811 -1258.1 0 109.112 -1258.07 0 
570.927 -1258.06 0 986.369 -1258.05 0 998.952 -1273.16 0 
1829.39 -1258.02 0 2519.95 -1258.01 0 -888.098 -1254.8 0 
-897.61 -1241.1 0 110.929 -1255.56 0 121.43 -1241.07 0 
565.862 -1241.06 0 972.148 -1241.05 0 1840.53 -1241.02 0 
2516.6 -1241.01 0 -909.41 -1224.1 0 133.748 -1224.07 0 
562.044 -1224.06 0 958.684 -1224.05 0 961.954 -1228.91 0 
1849.98 -1226.67 0 1851.72 -1224.02 0 2516 -1237.91 0 
2513.26 -1224 0 -921.21 -1207.1 0 141.8 -1207.07 0 
558.225 -1207.06 0 947.257 -1207.05 0 1862.92 -1207.02 0 
2509.91 -1207 0 -925.096 -1201.5 0 -933.009 -1190.1 0 
145.32 -1190.07 0 554.398 -1190.06 0 554.945 -1192.45 0 
935.83 -1190.04 0 1874.12 -1190.02 0 2506.56 -1190 0 
-944.809 -1173.09 0 147.791 -1173.06 0 550.521 -1173.05 0 
924.444 -1173.04 0 924.956 -1173.87 0 1885.32 -1173.02 0 
2503.27 -1173 0 -956.608 -1156.09 0 147.935 -1171.89 0 
149.732 -1156.06 0 546.651 -1156.05 0 914.355 -1156.04 0 
1886.98 -1170.49 0 1896.29 -1156.02 0 2501.11 -1156 0 
-962.094 -1148.19 0 -968.408 -1139.09 0 151.663 -1139.06 0 
542.788 -1139.05 0 905.634 -1139.04 0 1905.71 -1139.02 0 
2500.13 -1139 0 -982.765 -1122.09 0 153.593 -1122.06 0 
538.932 -1122.05 0 896.913 -1122.04 0 1913.82 -1122.01 0 
2499.74 -1122 0 -999.092 -1107.55 0 -1001.86 -1105.09 0 
155.524 -1105.06 0 535.083 -1105.05 0 888.192 -1105.04 0 
1920.88 -1105.01 0 2499.35 -1105 0 -1015.98 -1088.09 0 
157.455 -1088.06 0 531.24 -1088.05 0 879.471 -1088.04 0 
887.959 -1104.59 0 1923.99 -1096.74 0 1927.19 -1088.01 0 
2498.96 -1088 0 -1023.2 -1071.09 0 159.439 -1071.06 0 
527.404 -1071.05 0 870.75 -1071.04 0 1933.42 -1071.01 0 
2498.56 -1071 0 -1026.31 -1054.09 0 166.275 -1054.06 0 
523.575 -1054.05 0 861.385 -1054.04 0 1939.65 -1054.01 0 
2498.17 -1053.99 0 -1028.59 -1037.09 0 173.175 -1037.06 0 
519.752 -1037.05 0 848.043 -1037.04 0 850.962 -1040.84 0 
[...]
POINT_DATA 7056
SCALARS Pressure double
LOOKUP_TABLE default
3.0932710339 3.0932710339 3.0932710339 3.0932710339 3.0932710339 3.0932710339 3.0932710339 3.0932710339 3.0932710339 
3.0932710339 3.0932710339 3.0932710339 3.0932710339 3.0932710339 3.0932710339 3.0932710339 3.0932710339 3.0932710339 
3.0932710339 3.0932710339 3.0932710339 3.0932710339 3.0932710339 3.0932710339 3.0932710339 3.0932710339 3.0932710339 
3.0932710339 3.0932710339 3.0932710339 3.0932710339 3.0932710339 3.0932710339 3.0932710339 3.0932710339 3.0932710339 
3.0932710339 3.0932710339 3.0932710339 3.0932710339 3.0932710339 3.0932710339 3.0932710339 3.0932710339 3.0932710339 
3.0932710339 3.0932710339 3.0932710339 3.0932710339 3.0932710339 3.0932710339 3.0932710339 3.0932710339 3.0932710339 
3.0932710339 3.0932710339 3.0932710339 3.0932710339 3.0932710339 3.0932710339 3.0932710339 3.0932710339 3.0932710339 
3.0932710339 3.0932710339 3.0932710339 3.0932710339 3.0932710339 3.0932710339 3.0932710339 3.0932710339 3.0932710339 
3.0932710339 3.0932710339 3.0932710339 3.0932710339 3.0932710339 3.0932710339 3.0932710339 3.0932710339 3.0932710339 
3.0932710339 3.0932710339 3.0932710339 3.0932710339 3.0932710339 3.0932710339 3.0932710339 3.0932710339 3.0932710339 
3.0932710339 3.0932710339 3.0932710339 3.0932710339 3.0932710339 3.0932710339 3.0932710339 3.0932710339 3.0932710339 
3.0932710339 3.0932710339 3.0932710339 3.0932710339 3.0932710339 3.0932710339 3.0932710339 3.0932710339 3.0932710339 
3.0932710339 3.0932710339 3.0932710339 3.0932710339 3.0932710339 3.0932710339 3.0932710339 3.0932710339 3.0932710339 
3.0932710339 3.0932710339 3.0932710339 3.0932710339 3.0932710339 3.0932710339 3.0932710339 3.0932710339 3.0932710339 
3.0932710339 3.0932710339 3.0932710339 3.0932710339 3.0932710339 3.0932710339 3.0932710339 3.0932710339 3.0932710339 
3.0932710339 3.0932710339 3.0932710339 3.0932710339 3.0932710339 3.0932710339 3.0932710339 3.0932710339 3.0932710339 
3.0932710339 3.0932710339 3.0932710339 3.0932710339 3.0932710339 3.0932710339 3.0932710339 3.0932710339 3.0932710339 
3.0932710339 3.0932710339 3.0932710339 3.0932710339 3.0932710339 3.0932710339 3.0932710339 3.0932710339 3.0932710339 
3.0932710339 3.0932710339 3.0932710339 3.0932710339 3.0932710339 3.0932710339 3.0932710339 3.0932710339 3.0932710339 
3.0932710339 3.0932710339 3.0932710339 3.0932710339 3.0932710339 3.0932710339 3.0932710339 3.0932710339 3.0932710339 
3.0932710339 3.0932710339 3.0932710339 3.0932710339 3.0932710339 3.0932710339 3.0932710339 3.0932710339 3.0932710339 
3.0932710339 3.0932710339 3.0932710339 3.0932710339 3.0932710339 3.0932710339 3.0932710339 3.0932710339 3.0932710339 
3.0932710339 3.0932710339 3.0932710339 3.0932710339 3.0932710339 3.0932710339 3.0932710339 3.0932710339 3.0932710339 
3.0932710339 3.0932710339 3.0932710339 3.0932710339 3.0932710339 3.0932710339 3.0932710339 3.0932710339 3.0932710339 
3.0932710339 3.0932710339 3.0932710339 3.0932710339 3.0932710339 3.0932710339 3.0932710339 3.0932710339 3.0932710339 
3.0932710339 3.0932710339 3.0932710339 3.0932710339 3.0932710339 3.0932710339 3.0932710339 3.0932710339 3.0932710339 
3.0932710339 3.0932710339 3.0932710339 3.0932710339 3.0932710339 3.0932710339 3.0932710339 3.0932710339 3.0932710339 
3.0932710339 3.0932710339 3.0932710339 3.0932710339 3.0932710339 3.0932710339 3.0932710339 3.0932710339 3.0932710339 
3.0932710339 3.0786768432 3.0786768432 3.0786768432 3.0786768432 3.0932710339 3.0932710339 3.0786768432 3.0786768432 
3.0786768432 3.0786768432 3.0932710339 3.0932710339 3.0786768432 3.0786768432 3.0786768432 3.0786768432 3.0786768432 
3.0932710339 3.0932710339 3.0786768432 3.0786768432 3.0786768432 3.0932710339 3.0932710339 3.0786768432 3.0786768432 
3.0786768432 3.0786768432 3.0786768432 3.0932710339 3.1078652246 3.1078652246 3.1078652246 3.1078652246 3.1078652246 
3.1078652246 3.1078652246 3.1078652246 3.1078652246 3.1078652246 3.0932710339 3.0786768432 3.0786768432 3.0786768432 
3.0786768432 3.0932710339 3.1078652246 3.1078652246 3.1078652246 3.0932710339 3.0786768432 3.0786768432 3.0786768432 
3.0786768432 3.0786768432 3.0932710339 3.1078652246 3.1078652246 3.1078652246 3.1078652246 3.0932710339 3.0786768432 
3.0786768432 3.0786768432 3.0786768432 3.0932710339 3.1078652246 3.1078652246 3.0932710339 3.0786768432 3.0786768432 
3.0786768432 3.0932710339 3.0932710339 3.1078652246 3.1078652246 3.1078652246 3.1078652246 3.0932710339 3.0786768432 
3.0786768432 3.0786768432 3.0932710339 3.1078652246 3.1078652246 3.0932710339 3.0786768432 3.0786768432 3.0932710339 
3.1078652246 3.1078652246 3.1078652246 3.1078652246 3.0932710339 3.0786768432 3.0786768432 3.0786768432 3.0932710339 
3.1078652246 3.1078652246 3.1078652246 3.0932710339 3.0786768432 3.0786768432 3.0786768432 3.0932710339 3.1078652246 
3.1078652246 3.0932710339 3.0786768432 3.0786768432 3.0932710339 3.1078652246 3.1078652246 3.1078652246 3.1078652246 
3.0932710339 3.0786768432 3.0786768432 3.0786768432 3.0932710339 3.1078652246 3.1078652246 3.0932710339 3.0786768432 
3.0786768432 3.0786768432 3.0932710339 3.1078652246 3.1078652246 3.1078652246 3.0932710339 3.0786768432 3.0786768432 
3.0932710339 3.1078652246 3.1078652246 3.0932710339 3.0786768432 3.0786768432 3.0932710339 3.1078652246 3.1078652246 
3.1078652246 3.0932710339 3.0786768432 3.0786768432 3.0786768432 3.0786768432 3.0932710339 3.0932710339 3.1078652246 
3.1078652246 3.1078652246 3.1078652246 3.0932710339 3.0786768432 3.0786768432 3.0932710339 3.1078652246 3.1078652246 
3.0932710339 3.0786768432 3.0786768432 3.0932710339 3.1078652246 3.1078652246 3.1078652246 3.0932710339 3.0786768432 
3.0786768432 3.0786768432 3.0786768432 3.0932710339 3.1078652246 3.1078652246 3.0932710339 3.0786768432 3.0786768432 
3.0932710339 3.1078652246 3.1078652246 3.1078652246 3.1078652246 3.0932710339 3.0932710339 3.0786768432 3.0786768432 
3.0932710339 3.1078652246 3.1078652246 3.0932710339 3.0786768432 3.0786768432 3.0786768432 3.0932710339 3.0932710339 
3.1078652246 3.1078652246 3.0932710339 3.0786768432 3.0786768432 3.0932710339 3.1078652246 3.1078652246 3.1078652246 
3.0932710339 3.0786768432 3.0786768432 3.0786768432 3.0932710339 3.1078652246 3.1078652246 3.1078652246 3.0932710339 
3.0786768432 3.0786768432 3.0786768432 3.0932710339 3.1078652246 3.1078652246 3.0932710339 3.0786768432 3.0786768432 
3.0932710339 3.1078652246 3.1078652246 3.0932710339 3.0786768432 3.0786768432 3.0786768432 3.0932710339 3.1078652246 
3.1078652246 3.0932710339 3.0786768432 3.0786768432 3.0932710339 3.1078652246 3.1078652246 3.1078652246 3.1078652246 
3.0932710339 3.0786768432 3.0786768432 3.0932710339 3.1078652246 3.1078652246 3.0932710339 3.0786768432 3.0786768432 
3.0932710339 3.1078652246 3.1078652246 3.0932710339 3.0786768432 3.0786768432 3.0932710339 3.1078652246 3.1078652246 
3.1078652246 3.0932710339 3.0786768432 3.0786768432 3.0932710339 3.0932710339 3.1078652246 3.1078652246 3.0932710339 
3.0786768432 3.0786768432 3.0786768432 3.0932710339 3.1078652246 3.1078652246 3.0932710339 3.0786768432 3.0786768432 
3.0932710339 3.1078652246 3.1078652246 3.1078652246 3.1078652246 3.0932710339 3.0786768432 3.0786768432 3.0786768432 
3.0932710339 3.1078652246 3.1078652246 3.0932710339 3.0786768432 3.0786768432 3.0932710339 3.1078652246 3.1078652246 
3.0932710339 3.0786768432 3.0786768432 3.0932710339 3.1078652246 3.1078652246 3.1078652246 3.0932710339 3.0786768432 
3.0786768432 3.0932710339 3.1078652246 3.1078652246 3.0932710339 3.0786768432 3.0786768432 3.0932710339 3.1078652246 
3.1078652246 3.0932710339 3.0786768432 3.0786768432 3.0932710339 3.1078652246 3.1224594153 3.1224594153 3.1224594153 
3.1224594153 3.1078652246 3.1078652246 3.0932710339 3.0786768432 3.0786768432 3.0932710339 3.0932710339 3.1078652246 
3.1078652246 3.1224594153 3.1224594153 3.1224594153 3.1224594153 3.1224594153 3.1224594153 3.1224594153 3.1078652246 
3.0932710339 3.0786768432 3.0786768432 3.0932710339 3.1078652246 3.1224594153 3.1224594153 3.1224594153 3.1224594153 
3.1078652246 3.0932710339 3.0932710339 3.0786768432 3.0786768432 3.0932710339 3.1078652246 3.1224594153 3.1224594153 
3.1224594153 3.1224594153 3.1078652246 3.0932710339 3.0786768432 3.0786768432 3.0932710339 3.1078652246 3.1078652246 
3.1224594153 3.1224594153 3.1224594153 3.1078652246 3.0932710339 3.0786768432 3.0786768432 3.0786768432 3.0932710339 
3.1078652246 3.1224594153 3.1224594153 3.1224594153 3.1078652246 3.0932710339 3.0786768432 3.0786768432 3.0932710339 
3.1078652246 3.1224594153 3.1224594153 3.1224594153 3.1224594153 3.1078652246 3.0932710339 3.0786768432 3.0786768432 
3.0786768432 3.0786768432 3.0786768432 3.0786768432 3.0932710339 3.1078652246 3.1224594153 3.1224594153 3.1224594153 
3.1078652246 3.1078652246 3.0932710339 3.0786768432 3.0786768432 3.0786768432 3.0786768432 3.0640826525 3.0640826525 
3.0640826525 3.0640826525 3.0640826525 3.0640826525 3.0640826525 3.0786768432 3.0932710339 3.0932710339 3.1078652246 
3.1078652246 3.1224594153 3.1224594153 3.1224594153 3.1078652246 3.0932710339 3.0786768432 3.0786768432 3.0786768432 
3.0786768432 3.0786768432 3.0786768432 3.0640826525 3.0640826525 3.0640826525 3.0640826525 3.0786768432 3.0932710339 
3.1078652246 3.1224594153 3.1224594153 3.1078652246 3.0932710339 3.0786768432 3.0786768432 3.0786768432 3.0786768432 
3.0786768432 3.0640826525 3.0640826525 3.0640826525 3.0786768432 3.0932710339 3.1078652246 3.1224594153 3.1224594153 
3.1224594153 3.1224594153 3.1078652246 3.0932710339 3.0786768432 3.0786768432 3.0786768432 3.0786768432 3.0786768432 
3.0786768432 3.0786768432 3.0640826525 3.0640826525 3.0640826525 3.0640826525 3.0786768432 3.0932710339 3.1078652246 
3.1224594153 3.1224594153 3.1078652246 3.0932710339 3.0786768432 3.0786768432 3.0786768432 3.0786768432 3.0786768432 
3.0640826525 3.0640826525 3.0786768432 3.0932710339 3.1078652246 3.1078652246 3.1224594153 3.1224594153 3.1224594153 
3.1078652246 3.0932710339 3.0786768432 3.0786768432 3.0786768432 3.0786768432 3.0640826525 3.0640826525 3.0640826525 
3.0786768432 3.0932710339 3.1078652246 3.1224594153 3.1224594153 3.1078652246 3.0932710339 3.0786768432 3.0786768432 
3.0786768432 3.0786768432 3.0640826525 3.0640826525 3.0640826525 3.0786768432 3.0932710339 3.1078652246 3.1224594153 
3.1224594153 3.1224594153 3.1224594153 3.1078652246 3.0932710339 3.0786768432 3.0786768432 3.0786768432 3.0786768432 
3.0640826525 3.0640826525 3.0786768432 3.0932710339 3.1078652246 3.1224594153 3.1224594153 3.1078652246 3.1078652246 
3.0932710339 3.0786768432 3.0786768432 3.0786768432 3.0786768432 3.0640826525 3.0640826525 3.0640826525 3.0640826525 
3.0786768432 3.0932710339 3.1078652246 3.1224594153 3.1224594153 3.1224594153 3.1078652246 3.0932710339 3.0786768432 
3.0786768432 3.0786768432 3.0786768432 3.0640826525 3.0640826525 3.0786768432 3.0932710339 3.1078652246 3.1078652246 
3.1224594153 3.1224594153 3.1078652246 3.0932710339 3.0786768432 3.0786768432 3.0786768432 3.0640826525 3.0640826525 
3.0640826525 3.0640826525 3.0786768432 3.0932710339 3.0932710339 3.1078652246 3.1224594153 3.1224594153 3.1224594153 
3.1078652246 3.0932710339 3.0786768432 3.0786768432 3.0786768432 3.0786768432 3.0640826525 3.0640826525 3.0786768432 
3.0932710339 3.1078652246 3.1224594153 3.1224594153 3.1224594153 3.1078652246 3.0932710339 3.0786768432 3.0786768432 
3.0786768432 3.0640826525 3.0640826525 3.0786768432 3.0932710339 3.1078652246 3.1224594153 3.1224594153 3.1078652246 
3.0932710339 3.0786768432 3.0786768432 3.0786768432 3.0640826525 3.0640826525 3.0786768432 3.0932710339 3.1078652246 
3.1078652246 3.1224594153 3.1224594153 3.137053606 3.137053606 3.137053606 3.1224594153 3.1078652246 3.0932710339 
3.0786768432 3.0786768432 3.0786768432 3.0786768432 3.0640826525 3.0640826525 3.0786768432 3.0932710339 3.1078652246 
3.1224594153 3.137053606 3.137053606 3.137053606 3.137053606 3.1224594153 3.1224594153 3.1078652246 3.0932710339 
3.0786768432 3.0786768432 3.0786768432 3.0786768432 3.0640826525 3.0640826525 3.0640826525 3.0640826525 3.0786768432 
3.0932710339 3.1078652246 3.1224594153 3.1224594153 3.137053606 3.137053606 3.137053606 3.137053606 3.1224594153 
3.1078652246 3.0932710339 3.0786768432 3.0786768432 3.0786768432 3.0640826525 3.0640826525 3.0786768432 3.0932710339 
3.1078652246 3.1078652246 3.1224594153 3.137053606 3.137053606 3.137053606 3.1224594153 3.1078652246 3.0932710339 
3.0786768432 3.0786768432 3.0786768432 3.0786768432 3.0786768432 3.0640826525 3.0640826525 3.0786768432 3.0932710339 
3.1078652246 3.1224594153 3.137053606 3.137053606 3.137053606 3.1224594153 3.1078652246 3.1078652246 3.0932710339 
3.0786768432 3.0786768432 3.0786768432 3.0640826525 3.0494884618 3.0494884618 3.0494884618 3.0640826525 3.0786768432 
3.0932710339 3.0932710339 3.1078652246 3.1224594153 3.1224594153 3.137053606 3.137053606 3.137053606 3.137053606 
3.1224594153 3.1078652246 3.0932710339 3.0786768432 3.0786768432 3.0786768432 3.0640826525 3.0494884618 3.0494884618 
3.0494884618 3.0494884618 3.0494884618 3.0640826525 3.0786768432 3.0932710339 3.1078652246 3.1224594153 3.137053606 
3.137053606 3.1224594153 3.1078652246 3.0932710339 3.0786768432 3.0786768432 3.0786768432 3.0640826525 3.0494884618 
3.0494884618 3.0494884618 3.0640826525 3.0786768432 3.0932710339 3.1078652246 3.1078652246 3.1224594153 3.137053606 
3.137053606 3.137053606 3.137053606 3.1224594153 3.1078652246 3.0932710339 3.0786768432 3.0786768432 3.0786768432 
3.0786768432 3.0640826525 3.0640826525 3.0494884618 3.0494884618 3.0494884618 3.0494884618 3.0640826525 3.0786768432 
3.0932710339 3.1078652246 3.1224594153 3.1224594153 3.137053606 3.137053606 3.137053606 3.1224594153 3.1078652246 
3.0932710339 3.0932710339 3.0786768432 3.0786768432 3.0786768432 3.0640826525 3.0494884618 3.0494884618 3.0640826525 
3.0786768432 3.0932710339 3.1078652246 3.1224594153 3.137053606 3.137053606 3.137053606 3.1224594153 3.1224594153 
3.1078652246 3.0932710339 3.0786768432 3.0786768432 3.0786768432 3.0786768432 3.0786768432 3.0640826525 3.0494884618 
3.0494884618 3.0494884618 3.0640826525 3.0786768432 3.0932710339 3.0932710339 3.1078652246 3.1078652246 3.1224594153 
3.137053606 3.137053606 3.137053606 3.1224594153 3.1078652246 3.0932710339 3.0786768432 3.0786768432 3.0786768432 
3.0640826525 3.0494884618 3.0494884618 3.0494884618 3.0640826525 3.0786768432 3.0932710339 3.1078652246 3.1224594153 
3.1224594153 3.137053606 3.137053606 3.1224594153 3.1078652246 3.0932710339 3.0786768432 3.0786768432 3.0786768432 
3.0640826525 3.0494884618 3.0494884618 3.0494884618 3.0640826525 3.0786768432 3.0932710339 3.1078652246 3.1224594153 
3.137053606 3.137053606 3.1224594153 3.1078652246 3.0932710339 3.0786768432 3.0786768432 3.0786768432 3.0786768432 
3.0640826525 3.0494884618 3.0494884618 3.0640826525 3.0786768432 3.0932710339 3.1078652246 3.1224594153 3.137053606 
3.137053606 3.137053606 3.137053606 3.1224594153 3.1078652246 3.0932710339 3.0786768432 3.0786768432 3.0786768432 
3.0640826525 3.0494884618 3.0494884618 3.0494884618 3.0640826525 3.0786768432 3.0932710339 3.1078652246 3.1078652246 
3.1224594153 3.137053606 3.137053606 3.1224594153 3.1078652246 3.0932710339 3.0786768432 3.0786768432 3.0786768432 
3.0786768432 3.0786768432 3.0640826525 3.0494884618 3.0494884618 3.0640826525 3.0786768432 3.0786768432 3.0932710339 
3.0932710339 3.1078652246 3.1224594153 3.1224594153 3.137053606 3.137053606 3.1224594153 3.1078652246 3.1078652246 
3.0932710339 3.0786768432 3.0786768432 3.0786768432 3.0786768432 3.0640826525 3.0640826525 3.0494884618 3.0348942711 
3.0348942711 3.0348942711 3.0348942711 3.0494884618 3.0640826525 3.0786768432 3.0932710339 3.1078652246 3.1224594153 
3.137053606 3.137053606 3.137053606 3.1224594153 3.1078652246 3.0932710339 3.0786768432 3.0640826525 3.0640826525 
3.0640826525 3.0786768432 3.0786768432 3.0786768432 3.0640826525 3.0494884618 3.0348942711 3.0348942711 3.0348942711 
3.0348942711 3.0494884618 3.0494884618 3.0640826525 3.0786768432 3.0932710339 3.1078652246 3.1224594153 3.137053606 
3.137053606 3.1224594153 3.1078652246 3.0932710339 3.0786768432 3.0640826525 3.0640826525 3.0640826525 3.0640826525 
3.0640826525 3.0786768432 3.0786768432 3.0786768432 3.0786768432 3.0640826525 3.0494884618 3.0348942711 3.0348942711 
3.0348942711 3.0348942711 3.0494884618 3.0640826525 3.0786768432 3.0932710339 3.1078652246 3.1224594153 3.137053606 
3.137053606 3.137053606 3.1224594153 3.1078652246 3.0932710339 3.0786768432 3.0640826525 3.0640826525 3.0640826525 
3.0786768432 3.0786768432 3.0786768432 3.0786768432 3.0640826525 3.0494884618 3.0348942711 3.0348942711 3.0494884618 
3.0640826525 3.0786768432 3.0932710339 3.1078652246 3.1078652246 3.1224594153 3.137053606 3.137053606 3.1224594153 
3.1224594153 3.1078652246 3.0932710339 3.0786768432 3.0786768432 3.0640826525 3.0640826525 3.0640826525 3.0640826525 
3.0786768432 3.0786768432 3.0786768432 3.0786768432 3.0786768432 3.0640826525 3.0494884618 3.0348942711 3.0348942711 
3.0494884618 3.0640826525 3.0786768432 3.0932710339 3.1078652246 3.1224594153 3.137053606 3.137053606 3.137053606 
3.1224594153 3.1078652246 3.0932710339 3.0932710339 3.0786768432 3.0640826525 3.0640826525 3.0640826525 3.0786768432 
3.0786768432 3.0786768432 3.0640826525 3.0494884618 3.0494884618 3.0348942711 3.0348942711 3.0203000804 3.0203000804 
3.0203000804 3.0203000804 3.0348942711 3.0348942711 3.0494884618 3.0640826525 3.0786768432 3.0786768432 3.0932710339 
3.1078652246 3.1224594153 2.9619233175 2.9619233175 2.9765175082 2.9765175082 2.991111699 2.991111699 3.0057058897 
3.0057058897 3.0203000804 3.0203000804 3.0348942711 3.0348942711 3.0494884618 3.0494884618 3.0640826525 3.0640826525 
3.0786768432 3.0786768432 3.0932710339 3.0932710339 3.1078652246 3.1078652246 3.1224594153 3.1224594153 3.137053606 
2.9619233175 2.9765175082 2.991111699 3.0057058897 3.0203000804 3.0348942711 3.0494884618 3.0640826525 3.0786768432 
3.0932710339 3.1078652246 3.1224594153 3.137053606 2.9619233175 2.9765175082 2.991111699 3.0057058897 3.0203000804 
3.0348942711 3.0494884618 3.0640826525 3.0786768432 3.0932710339 3.1078652246 3.1224594153 3.137053606 2.9619233175 
2.9765175082 2.991111699 3.0057058897 3.0203000804 3.0348942711 3.0494884618 3.0640826525 3.0786768432 3.0932710339 
3.1078652246 3.1224594153 3.137053606 2.9619233175 2.9765175082 2.991111699 3.0057058897 3.0203000804 3.0348942711 
3.0494884618 3.0640826525 3.0786768432 3.0932710339 3.1078652246 3.1224594153 3.137053606 2.9619233175 2.9765175082 
2.991111699 3.0057058897 3.0203000804 3.0348942711 3.0494884618 3.0640826525 3.0786768432 3.0932710339 3.1078652246 
3.1224594153 3.137053606 2.9619233175 2.9765175082 2.991111699 3.0057058897 3.0203000804 3.0348942711 3.0494884618 
3.0640826525 3.0786768432 3.0932710339 3.1078652246 3.1224594153 3.137053606 2.9619233175 2.9765175082 2.991111699 
3.0057058897 3.0203000804 3.0348942711 3.0494884618 3.0640826525 3.0786768432 3.0932710339 3.1078652246 3.1224594153 
3.137053606 2.9619233175 2.9765175082 2.991111699 3.0057058897 3.0203000804 3.0348942711 3.0494884618 3.0640826525 
3.0786768432 3.0932710339 3.1078652246 3.1224594153 3.137053606 2.9619233175 2.9765175082 2.991111699 3.0057058897 
3.0203000804 3.0348942711 3.0494884618 3.0640826525 3.0786768432 3.0932710339 3.1078652246 3.1224594153 3.137053606 
3.137053606 3.137053606 3.1224594153 3.1078652246 3.0932710339 3.0786768432 3.0640826525 3.0640826525 3.0786768432 
3.0786768432 3.0786768432 3.0640826525 3.0494884618 3.0348942711 3.0203000804 3.0203000804 3.0203000804 3.0348942711 
3.0494884618 3.0640826525 3.0786768432 3.0932710339 3.1078652246 2.9619233175 2.9619233175 2.9765175082 2.9765175082 
2.991111699 2.991111699 3.0057058897 3.0057058897 3.0203000804 3.0203000804 3.0348942711 3.0348942711 3.0494884618 
3.0494884618 3.0640826525 3.0640826525 3.0786768432 3.0786768432 3.0932710339 3.0932710339 3.1078652246 3.1078652246 
2.9619233175 2.9765175082 2.991111699 3.0057058897 3.0203000804 3.0348942711 3.0494884618 3.0640826525 3.0786768432 