# vtk DataFile Version 4.2
vtk output
ASCII
DATASET UNSTRUCTURED_GRID
POINTS 1740 double
2144.07 -94.44003 0 2911 0 0 16.54298 -37.82236 0 
5.09149 -21.30132 0 1.27433 -10.75385 0 0 0 0 
2.54575 15.14293 0 6.36291 23.76126 0 14.00014 34.89063 0 
30.50239 50.70793 0 33.39435 -52.93479 0 2050.91 -103.7862 0 
60.1465 -69.72165 0 88.83633 -83.2817 0 118.7656 -94.71113 0 
153.4168 -105.7022 0 199.5806 -117.771 0 261.4466 -130.7139 0 
345.846 -144.1892 0 460.3522 -157.0592 0 608.4185 -167.1903 0 
783.2313 -172.4016 0 941.0559 -172.4533 0 1063.409 -170.1096 0 
1164.153 -166.8746 0 1263.449 -162.682 0 1375.468 -156.8941 0 
1513.293 -148.414 0 1665.281 -137.5317 0 1791.864 -127.3721 0 
2195.451 -89.09491 0 2273.924 -80.67077 0 2383.731 -68.3513 0 
2517.64 -52.47337 0 2649.227 -35.9232 0 2740.773 -23.82991 0 
2804.387 -15.13419 0 2848.802 -8.916218 0 2881.944 -4.196067 0 
56.61447 67.79801 0 84.09687 81.25172 0 112.4783 92.48395 0 
142.1748 102.3504 0 174.8563 111.6168 0 213.124 120.8806 0 
260.3759 130.5151 0 324.6539 141.1779 0 418.1422 152.9178 0 
535.6656 162.9871 0 690.9154 170.4255 0 902.6513 172.7852 0 
1100.32 169.0517 0 1270.99 162.3262 0 1462.794 151.6837 0 
1631.287 140.0952 0 1747.993 131 0 1922.788 115.9027 0 
2069.56 101.951 0 2128.804 96.0021 0 2297.147 78.11721 0 
2414.379 64.80104 0 2554.023 47.99319 0 2673.693 32.73885 0 
2757.97 21.50315 0 2814.297 13.7575 0 2852.02 8.460961 0 
2882.272 4.148909 0 1791.052 127.4402 0 1366.894 157.3738 0 
1444.38 -152.8302 0 1547.039 146.1296 0 1589.287 -143.1614 0 
1878.731 119.8675 0 1997.072 108.9828 0 1185.654 166.0472 0 
1882.536 -119.5292 0 1971.323 -111.4145 0 1684.777 136.0292 0 
2099.317 -98.9855 0 2234.809 84.9091 0 2181.695 90.53914 0 
1728.573 -132.5703 0 1718.815 133.3509 0 1834.825 123.7132 0 
1960.305 112.4444 0 2033.69 105.4648 0 2099.184 98.99892 0 
2214.291 -77.403281903 396.8421 2955.512 12.83241685 396.8421 158.0786 -29.920025109 396.8421 
147.0109 -14.078577379 396.8421 143.3217 -3.9481546858 396.8421 142.09 6.3930047803 396.8421 
144.5505 20.975439938 396.8421 148.2398 29.28593895 396.8421 155.621 40.030511867 396.8421 
171.5701 55.327171311 396.8421 174.3652 -44.37989856 396.8421 2124.254 -86.468030335 396.8421 
200.2206 -60.402842176 396.8421 227.9488 -73.311336794 396.8421 256.8748 -84.16376855 396.8421 
290.3647 -94.571772863 396.8421 334.981 -105.96168116 396.8421 394.7733 -118.11873708 396.8421 
476.3434 -130.68449884 396.8421 587.0114 -142.5361295 396.8421 730.1145 -151.62004597 396.8421 
899.0676 -155.89131428 396.8421 1051.602 -155.31481802 396.8421 1169.853 -152.60696693 396.8421 
1267.221 -149.14469359 396.8421 1363.188 -144.78797494 396.8421 1471.452 -138.88230074 396.8421 
1604.657 -130.35133073 396.8421 1751.55 -119.52869551 396.8421 1873.891 -109.50959718 396.8421 
2263.949 -72.233209197 396.8421 2339.792 -64.104063432 396.8421 2445.918 -52.254733991 396.8421 
2575.338 -37.043566478 396.8421 2702.515 -21.252804947 396.8421 2790.992 -9.7513682288 396.8421 
2852.473 -1.4987158939 396.8421 2895.4 4.3940291086 396.8421 2927.431 8.8628606427 396.8421 
196.807 71.893070909 396.8421 223.3682 84.965941271 396.8421 250.7983 95.905142266 396.8421 
279.4994 105.53587664 396.8421 311.0855 114.60274564 396.8421 348.0705 123.69239278 396.8421 
393.7383 133.17952187 396.8421 455.8617 143.73298806 396.8421 546.2162 155.45335982 396.8421 
659.8003 165.66908225 396.8421 809.846 173.50813474 396.8421 1014.485 176.66980068 396.8421 
1205.528 173.85355289 396.8421 1370.477 167.99592909 396.8421 1555.851 158.36841101 396.8421 
1718.696 147.67669442 396.8421 1831.49 139.19384041 396.8421 2000.426 124.98514423 396.8421 
2142.278 111.74215717 396.8421 2199.537 106.0675906 396.8421 2362.236 88.91937675 396.8421 
2475.539 76.074867684 396.8421 2610.501 59.78003385 396.8421 2726.16 44.920234061 396.8421 
2807.613 33.936200375 396.8421 2862.05 26.346306659 396.8421 2898.509 21.148401412 396.8421 
2927.749 16.912120606 396.8421 1873.106 135.85664935 396.8421 1463.165 163.54817151 396.8421 
1538.054 -134.78031544 396.8421 1637.272 153.26360005 396.8421 1678.104 -125.1135917 396.8421 
1957.846 128.73000183 396.8421 2072.22 118.42891649 396.8421 1288 171.27673801 396.8421 
1961.524 -101.8179037 396.8421 2047.334 -93.892179217 396.8421 1770.393 143.89282628 396.8421 
2171.038 -81.807871659 396.8421 2301.989 95.446248431 396.8421 2250.655 100.84316131 396.8421 
1812.721 -114.62724054 396.8421 1803.29 141.39271864 396.8421 1915.411 132.3535631 396.8421 
2036.686 121.71160944 396.8421 2107.61 115.08646139 396.8421 2170.909 108.9281945 396.8421 
2284.511 -62.986226429 793.6842 3000.027 23.294019566 793.6842 299.6143 -21.654328546 793.6842 
288.9304 -6.4485443183 793.6842 285.3691 3.2884097499 793.6842 284.1801 13.237674199 793.6842 
286.5551 27.283620881 793.6842 290.1167 35.297136242 793.6842 297.2417 45.667639816 793.6842 
312.6379 60.452245233 793.6842 315.336 -35.510250846 793.6842 2197.597 -71.728400064 793.6842 
340.2947 -50.834505041 793.6842 367.0612 -63.154501187 793.6842 394.9839 -73.491817057 793.6842 
427.3123 -83.385461239 793.6842 470.3812 -94.18514829 793.6842 528.0998 -105.67190784 793.6842 
606.8411 -117.48211752 793.6842 713.6708 -128.52000685 793.6842 851.8104 -136.81505747 793.6842 
1014.904 -140.44187659 793.6842 1162.147 -139.49342419 793.6842 1276.298 -136.61125068 793.6842 
1370.288 -133.07127706 793.6842 1462.927 -128.69098101 793.6842 1567.436 -122.81735038 793.6842 
1696.021 -114.40468666 793.6842 1837.82 -103.806922 793.6842 1955.917 -94.046580029 793.6842 
2332.447 -58.00818088 793.6842 2405.659 -50.191713688 793.6842 2508.105 -38.819781302 793.6842 
2633.037 -24.254794808 793.6842 2755.801 -9.1694314373 793.6842 2841.209 1.7986894996 793.6842 
2900.561 9.6595564045 793.6842 2941.997 15.268261338 793.6842 2972.917 19.519407354 793.6842 
336.9995 76.493095199 793.6842 362.6396 89.175796965 793.6842 389.1182 99.80701853 793.6842 
416.8239 109.18253757 793.6842 447.3145 118.0247962 793.6842 483.0167 126.90705441 793.6842 
527.1009 136.20097809 793.6842 587.0697 146.57585874 793.6842 674.2905 158.16438318 793.6842 
783.9349 168.36952189 793.6842 928.7766 176.38080365 793.6842 1126.317 180.00752423 793.6842 
1310.735 177.78090282 793.6842 1469.963 172.50813922 793.6842 1648.908 163.58768097 793.6842 
1806.105 153.53997972 793.6842 1914.987 145.50767654 793.6842 2078.064 131.97188046 793.6842 
2214.996 119.28607179 793.6842 2270.269 113.83335223 793.6842 2427.326 97.303514391 793.6842 
2536.699 84.877859241 793.6842 2666.98 69.068390606 793.6842 2778.628 54.612523797 793.6842 
2857.255 43.906377385 793.6842 2909.806 36.49927882 793.6842 2945.001 31.42253738 793.6842 
2973.224 27.282718966 793.6842 1955.16 142.33669108 793.6842 1559.437 168.40905639 793.6842 
1631.729 -118.76397595 793.6842 1727.505 158.80325 793.6842 1766.921 -109.26740521 793.6842 
2036.96 135.54772312 793.6842 2147.368 125.69880774 793.6842 1390.347 175.48972059 793.6842 
2040.511 -86.578788032 793.6842 2123.346 -78.903028916 793.6842 1856.009 149.96247344 793.6842 
2242.759 -67.231733789 793.6842 2369.167 103.60359436 793.6842 2319.614 108.80518086 793.6842 
1896.869 -99.02696662 793.6842 1887.765 147.59385891 793.6842 1995.998 139.00242363 793.6842 
2113.066 128.84168551 793.6842 2181.531 122.49511375 793.6842 2242.634 116.5832822 793.6842 
2354.732 -50.647316089 1190.526 3044.539 31.840373784 1190.526 441.15 -13.420531045 1190.526 
430.8497 1.1822464986 1190.526 427.4164 10.543038612 1190.526 426.2701 20.115465322 1190.526 
428.5601 33.641858298 1190.526 431.9934 41.36572264 1190.526 438.8627 51.369049134 1190.526 
453.7057 65.645923243 1190.526 456.3069 -26.709092382 1190.526 2270.94 -59.041864699 1190.526 
480.3688 -41.383876763 1190.526 506.1737 -53.162968646 1190.526 533.0934 -63.031811523 1190.526 
564.26 -72.462724581 1190.526 605.7815 -82.738347145 1190.526 661.4265 -93.640222678 1190.526 
737.3385 -104.80762012 1190.526 840.33 -115.17898519 1190.526 973.5064 -122.86781998 1190.526 
1130.74 -126.05508466 1190.526 1272.693 -124.90854756 1190.526 1382.742 -121.9791779 1190.526 
1473.356 -118.46070317 1190.526 1562.666 -114.14922517 1190.526 1663.42 -108.40487753 1190.526 
1787.385 -100.21979911 1190.526 1924.09 -89.95231988 1190.526 2037.944 -80.52550491 1190.526 
2400.946 -45.871417428 1190.526 2471.527 -38.377956213 1190.526 2570.292 -27.486737779 1190.526 
2690.735 -13.553538887 1190.526 2809.091 0.86151192604 1190.526 2891.43 11.333776374 1190.526 
2948.647 18.835449081 1190.526 2988.597 24.186114139 1190.526 3018.403 28.240813917 1190.526 
477.1918 81.158391287 1190.526 501.9109 93.441466867 1190.526 527.4382 103.75137391 1190.526 
554.1485 112.85502118 1190.526 583.5435 121.45197465 1190.526 617.963 130.10038445 1190.526 
660.4633 139.16539029 1190.526 718.2775 149.3089217 1190.526 802.3645 160.68209564 1190.526 
908.0698 170.76262331 1190.526 1047.707 178.7843141 1190.526 1238.151 182.64318075 1190.526 
1415.942 180.78422608 1190.526 1569.449 175.90726381 1190.526 1741.965 167.49078678 1190.526 
1893.514 157.92157002 1190.526 1998.484 150.23461994 1190.526 2155.702 137.23200638 1190.526 
2287.714 125.00543444 1190.526 2341.001 119.74070035 1190.526 2492.415 103.75270695 1190.526 
2597.858 91.711372745 1190.526 2723.46 76.368063185 1190.526 2831.095 62.320196023 1190.526 
2906.899 51.906906926 1190.526 2957.56 44.698473824 1190.526 2991.49 39.756194894 1190.526 
3018.699 35.725086325 1190.526 2037.214 147.19340712 1190.526 1655.708 172.05376433 1190.526 
1725.403 -104.45624462 1190.526 1817.738 162.94216391 1190.526 1855.738 -95.237740425 1190.526 
2116.075 140.67193422 1190.526 2222.516 131.19013926 1190.526 1492.694 178.68355611 1190.526 
2119.498 -73.327190934 1190.526 2199.357 -65.939117393 1190.526 1941.625 154.50104129 1190.526 
2314.479 -54.722765439 1190.526 2436.346 109.85082115 1190.526 2388.573 114.88157187 1190.526 
1981.017 -85.332661108 1190.526 1972.24 152.23348754 1190.526 2076.584 143.99208834 1190.526 
[...]
POINT_DATA 1740
FIELD FieldData 1
Pressure 1 1740 double
3.1047006892 3.0188698445 3.0093385487 2.9857095383 2.97893131 2.9597073359 2.9718913343 2.9890780204 3.0201347284 
3.0343392077 3.0107657279 3.108659218 3.033383254 3.0478436985 3.065111251 3.0644404567 3.0817360703 3.0869969888 
3.1078459353 3.1130731165 3.1315613597 3.1398646938 3.141905017 3.1477329514 3.1428210112 3.1388425059 3.1354861707 
3.1319162548 3.1252157694 3.1195079357 3.1021518717 3.098740682 3.0931710269 3.0850914779 3.0742445346 3.0641933108 
3.0543154943 3.0456583155 3.0372784237 3.0702119543 3.081906431 3.0943982155 3.1076301708 3.1139525243 3.120443729 
3.1277121056 3.1354144564 3.1510873541 3.1634851884 3.1805478179 3.1914086669 3.1979932066 3.2039325979 3.2097313228 
3.2137788289 3.2170032877 3.2177041482 3.1584886526 3.0978567727 3.0878020355 3.0818701141 3.0730464196 3.0633510599 
3.0528777323 3.0425056447 3.0347937118 3.0333019298 3.216828859 3.207552482 3.1343089566 3.2111281433 3.1285390837 
3.2175624503 3.2205011635 3.2048194839 3.1157640753 3.1120931788 3.2149440673 3.1065566219 3.0916306506 3.0932374948 
3.1221376035 3.2166023919 3.217156533 3.2187689976 3.2271074169 3.0913502015 3.1017275646 3.0237003547 3.0276089633 
3.0010952708 3.0078742739 2.9864855928 2.9937690929 3.0055277876 3.0340501863 3.0525779666 3.0351980302 3.1060054095 
3.0555216069 3.0679797801 3.0812416583 3.0853354901 3.1005734178 3.1101151829 3.123237386 3.1284308711 3.1385744962 
3.142789789 3.1464671902 3.1467053327 3.1422223066 3.1376455444 3.1323720871 3.1281409698 3.1220322805 3.1166868535 
3.0994534123 3.0954112781 3.0897738621 3.0818240989 3.0709296949 3.0608759481 3.0511357807 3.0435688065 3.0282444137 
3.0856973327 3.1068110688 3.1190090847 3.127484623 3.1366725633 3.1412255321 3.1467605305 3.1571196742 3.1688873541 
3.1776258095 3.1872123396 3.1950663148 3.2014278986 3.2078761285 3.2113140346 3.2142330271 3.2169366905 3.2195907587 
3.091376585 3.0980027103 3.0913642301 3.0852130111 3.076706578 3.0661323744 3.0559194931 3.0458107365 3.0391185628 
3.0397907792 3.217517841 3.2095288619 3.1311835864 3.2138717571 3.1247699999 3.2187038258 3.2214598411 3.2063366952 
3.1128614846 3.109235418 3.21557135 3.1040839561 3.0946044064 3.0967994285 3.1195444816 3.2162934977 3.217524101 
3.2179271208 3.1719671655 3.097110573 3.0997018742 3.0235075775 3.0278905397 3.0002659508 3.0022273434 2.9845274312 
2.996496288 3.0102036856 3.0391783457 3.0604099271 3.0435177378 3.1039324043 3.0584088565 3.077434958 3.0954867091 
3.1021192878 3.1145019584 3.1227786039 3.1354704315 3.141587252 3.1482322638 3.1505256724 3.149876671 3.1480109049 
3.1420300613 3.1363291261 3.131104998 3.1253500603 3.1199865177 3.1148439198 3.0973804075 3.0936144122 3.0877537021 
3.0799773433 3.0689616322 3.0587666365 3.0495659471 3.0423563951 3.0286684886 3.0933281576 3.1150428463 3.1333973447 
3.1423964663 3.1526460644 3.161340188 3.1712405301 3.1755237501 3.1840051622 3.1939044591 3.1995264907 3.205123132 
3.2076214236 3.2140986622 3.2169798078 3.2176889821 3.2194037079 3.2229867233 3.091705183 3.0929787194 3.0901466482 
3.0848138082 3.0769360202 3.0664746066 3.0566945736 3.0468991354 3.0397387939 3.0413225463 3.2200386491 3.2159034567 
3.1286981621 3.2176705724 3.1226257886 3.2207840769 3.2100420575 3.211599258 3.110924553 3.1072026861 3.2181069913 
3.1020904432 3.0926597964 3.093668759 3.1175132217 3.218578997 3.2206127083 3.2241495871 3.0865848048 3.0899897127 
3.098299536 3.0233416834 3.0284499312 3.0001906262 3.0026272105 2.9827781826 2.9925148068 3.0071874145 3.0398195206 
3.0615056309 3.04292805 3.1025105556 3.0633272873 3.0808603511 3.0998676874 3.108752054 3.120713572 3.1292164922 
3.1413647959 3.1485356322 3.1544183912 3.1552711811 3.1532699132 3.1492964131 3.1424584365 3.1362499589 3.1304714331 
3.124573936 3.1185447732 3.11344836 3.096054009 3.092299541 3.0866749246 3.0789591178 3.0681280009 3.0579826656 
3.0491457552 3.0419596124 3.0288628773 3.0973385247 3.1206923128 3.1359117516 3.1479866352 3.1555209962 3.1665056938 
3.1788411295 3.1886860557 3.1965717976 3.2062323751 3.2117086544 3.2164290594 3.2170319432 3.2226464125 3.2248963051 
3.2246351937 3.2254481628 3.2330030015 3.0909419633 3.0914624187 3.0887687206 3.083640513 3.0756154206 3.0655231845 
3.0559104609 3.0464555685 3.0390983253 3.040946466 3.2257537007 3.2239044137 3.1279810151 3.224937055 3.1214157831 
3.2259998888 3.0848346656 3.220068116 3.109598928 3.1056617671 3.224760859 3.1006271854 3.0910072635 3.0915275861 
3.1160267705 3.2247993245 3.226202146 3.1135760793 3.089342541 3.091266526 3.0974365538 3.0228519418 3.0306556433 
3.0010659011 3.008048874 2.9869437911 2.9946509389 3.0082781745 3.0419797787 3.062781207 3.044197922 3.1015772403 
3.0657950263 3.0831846437 3.100136877 3.1099720674 3.1226225652 3.1330426131 3.144061715 3.1519266914 3.1581811545 
3.1578959743 3.1546137762 3.1492245247 3.1418585757 3.1353392533 3.129313264 3.1236417953 3.1177015085 3.112356567 
3.0951822995 3.0914279097 3.085896817 3.0782354145 3.0676279786 3.0576511695 3.0489877077 3.0416938913 3.0291405909 
3.0988398432 3.1226758094 3.1375942216 3.1506790188 3.1596927981 3.1710362928 3.1823701885 3.188308317 3.1994075506 
3.2118710169 3.2205174639 3.2250541814 3.2261981334 3.2308366632 3.2324337836 3.231989536 3.232489131 3.1432399586 
3.0891827023 3.0890260001 3.0866900695 3.0815871817 3.0736040822 3.0638994029 3.0545008042 3.0452769637 3.0380236142 
3.0401342493 3.2326985724 3.2322828 3.1270503312 3.2322543698 3.1205379578 3.23075019 3.0885175894 3.2288448522 
3.1085582496 3.1045750824 3.2319093786 3.0995365223 3.0886135823 3.0890865349 3.1150704476 3.2320003797 3.2329647679 
3.0864418692 3.0892531948 3.0891449477 3.096696788 3.0225732709 3.0317838268 3.0024661635 3.01007909 2.9878906662 
2.9962223448 3.0097843211 3.042999701 3.0647175122 3.0452037983 3.1007026348 3.0670436052 3.085057773 3.1011700416 
3.1114523949 3.1241593053 3.1353384933 3.1466789743 3.1545549756 3.1613531706 3.1599901167 3.1554475156 3.1487505324 
3.1410737895 3.1344620377 3.1283578091 3.1227105508 3.1167773567 3.1114104343 3.0944295735 3.0906721623 3.085250354 
3.0776230997 3.0671478154 3.0572435084 3.0486985955 3.0413089261 3.0293538449 3.1003903195 3.1245820756 3.1396359525 
3.1527986018 3.1618853225 3.1737202128 3.1863804478 3.1936117574 3.2050527214 3.2169782144 3.2274205393 3.2327441386 
3.2347683062 3.2399914905 3.2412653789 3.239846072 3.2397751495 3.0783197674 3.0878268466 3.0872236671 3.0848292972 
3.0801367283 3.0726378557 3.0630571746 3.0537859254 3.044918509 3.037713413 3.0399101706 3.2399728667 3.2405856417 
3.126087005 3.2405601248 3.1196172838 3.2389197262 3.0867247757 3.2374425023 3.1076363862 3.1037063291 3.2394507663 
3.0988120422 3.0865854605 3.0871773553 3.114164843 3.2394797012 3.2398092335 3.0822967987 3.0872006839 3.0876430767 
3.0961269538 3.0225408638 3.0321536466 3.0026627425 3.0097073891 2.9874187708 2.9962427211 3.0099092903 3.0432497307 
3.0652260298 3.0457724606 3.1001368941 3.0677576524 3.0860193334 3.1020530638 3.1126097752 3.1254298639 3.1370458452 
3.1484915391 3.1564520103 3.1636472529 3.1615293466 3.1559791222 3.1483548367 3.1405811078 3.1339599838 3.1278656026 
3.1220791631 3.1161357253 3.1108134728 3.0938830068 3.0901184857 3.0847763203 3.0771771129 3.066775427 3.0568728399 
3.0484047818 3.0409225354 3.0294546453 3.1009459226 3.1254340858 3.1408812245 3.1541686363 3.1635991023 3.1755323176 
3.1881593028 3.1961584545 3.2081042261 3.2211279236 3.232425557 3.2392381679 3.2423813613 3.2483845385 3.2499724074 
3.2486937478 3.2479728937 3.08485485 3.0878095705 3.0868740536 3.0848082027 3.0802092065 3.0728713458 3.0632479559 
3.0540771965 3.0452401584 3.0379830922 3.0403961882 3.247810166 3.2493919493 3.1255209804 3.2496626502 3.1189909372 
3.2413968102 3.0858015337 3.2454533973 3.1070272199 3.1031211831 3.2480034389 3.098210131 3.0865353605 3.0871166087 
3.1134575982 3.247663552 3.2537764562 3.0852572446 3.0864536658 3.0877509552 3.0957744879 3.0223542008 3.0325529452 
3.002915627 3.0098257743 2.9875938927 2.9963233855 3.0099119666 3.0434488206 3.0654496788 3.0462105899 3.0998458634 
3.0682788693 3.0865018599 3.1024787425 3.1132592859 3.1262616574 3.1382362146 3.149683755 3.1577462632 3.1652716766 
3.1626735223 3.1562231754 3.1480378468 3.1402617941 3.1336746877 3.1276274043 3.1215642192 3.1157638952 3.110402634 
3.0935430386 3.089773194 3.0845194495 3.0769338849 3.066578831 3.0566279078 3.0482172492 3.0406227371 3.0296729018 
3.1012102824 3.1259078047 3.1415491373 3.1549674232 3.1645524029 3.1765740223 3.1892786585 3.1979029362 3.2101381909 
3.2236545632 3.2356020819 3.2436825837 3.248349292 3.2550520034 3.2573542294 3.2568874441 3.2562523053 3.0833441218 
3.0872423926 3.0861037906 3.0835724124 3.0790419875 3.07197087 3.0626978752 3.0538367626 3.0451559374 3.0378136647 
3.0404996796 3.2560490797 3.2569742526 3.1250749434 3.2572595671 3.1185926021 3.2083269472 3.0847505461 3.2518905578 
3.1066535806 3.1028369524 3.256435206 3.097841077 3.0853655101 3.0859605896 3.1130297739 3.2559922977 3.2616744718 
3.0882106884 3.0857291037 3.0879154416 3.0956235064 3.0222779906 3.0329626447 3.0032644718 3.01009527 2.9878543282 
2.9966207145 3.0101673383 3.0437306559 3.0658114411 3.0466075366 3.0996640285 3.0686657995 3.0871334527 3.1030795848 
3.114029098 3.1270649078 3.1392777539 3.1507266414 3.1590110324 3.1666384124 3.1636805895 3.1564896555 3.1480309153 
3.1402266052 3.1335991064 3.1275848774 3.121409753 3.1156258609 3.1102333483 3.0933759505 3.089593234 3.0844188649 
3.0767853495 3.0665204518 3.0564267465 3.0480682275 3.0403987628 3.0298076855 3.1015574423 3.126351677 3.1421548518 
3.1556481417 3.1653137361 3.1774029864 3.1900791638 3.1990913412 3.2115991186 3.2254349891 3.237725071 3.2469808674 
3.2525250292 3.2601049905 3.2639070527 3.263566174 3.2637399473 3.0834338725 3.0861380758 3.084294703 3.0814553636 
3.0772822713 3.0706087185 3.0615324099 3.0528628463 3.0445165224 3.0370933556 3.0401463937 3.2639386046 3.2622384536 
3.1249783057 3.263891399 3.1184778069 3.2058664171 3.0821623552 3.256481161 3.1064920997 3.1027416931 3.2634620579 
3.0976023649 3.0830181464 3.0836168744 3.112831407 3.2632426253 3.2682523122 3.0888631607 3.0830356642 3.0876110197 
3.0955646224 3.0223917613 3.0333229558 3.0036186576 3.0104405869 2.9881205118 2.996911327 3.0104617905 3.0440222257 
3.0661893805 3.0469059127 3.0994775973 3.0689396383 3.0874878754 3.1035444886 3.1146348233 3.1277312392 3.1401203426 
3.1516593865 3.1602339774 3.1679071739 3.164726186 3.1569737927 3.1483297239 3.140396445 3.1337392443 3.127693738 
3.1215391926 3.1156889549 3.1102199958 3.0933119714 3.0895431288 3.0844396865 3.0767502573 3.0665605344 3.0564051964 
3.0480783469 3.0403730668 3.0299744854 3.1019358759 3.1267988149 3.1427204831 3.1562484688 3.1660058111 3.1781096044 
3.1907656616 3.2000204788 3.2127384795 3.2267779261 3.2392855207 3.2489238066 3.255329006 3.2635117045 3.2674245918 
3.2687491741 3.2691914124 3.0810340192 3.0857753444 3.0839535296 3.0807515768 3.0767407163 3.0702781523 3.0609549752 
3.05226302 3.0441381326 3.0366596193 3.0396946308 3.2694855795 3.2660589937 3.1251111894 3.2685772742 3.1185881031 
3.2095797516 3.0822444384 3.2596382564 3.1065601253 3.1027299305 3.2688852918 3.0974563628 3.0825658062 3.0831480015 
3.1127988267 3.2689163785 3.2696281557 3.0903807409 3.0843120634 3.0863708707 3.0956220301 3.0224807859 3.0336404579 
3.0039335471 3.0108128105 2.9884229558 2.9971987061 3.010729892 3.0443320962 3.0665715165 3.0470565875 3.0996762941 
3.0690809445 3.0876930863 3.1038278064 3.115039527 3.1281974102 3.1407324734 3.152500282 3.16131769 3.1691135253 
3.1658834688 3.1577456545 3.1489390753 3.1408053063 3.1341267351 3.1279986638 3.1219631878 3.1159759715 3.1104334257 
3.093419608 3.0896208661 3.0845637386 3.0768324653 3.066722621 3.0565209275 3.0482303317 3.0404763397 3.0302433753 
3.1023473613 3.1272397951 3.1432672472 3.156811399 3.1666203305 3.1787210199 3.1913629648 3.2007771837 3.2136497669 
3.2277918531 3.2404575669 3.2502418102 3.2570265298 3.2657640386 3.2699685064 3.2717057811 3.2727303909 3.0884677885 
3.0841692504 3.0835052143 3.0803469759 3.0760728435 3.0695151976 3.0601245361 3.0514597391 3.0433870111 3.0359975345 
3.0388050362 3.2732645561 3.2684432545 3.1255422849 3.2713699571 3.1189190584 3.2514668782 3.085396952 3.2615547143 
3.1067842096 3.103063501 3.2722713917 3.0974541807 3.082129114 3.0826833742 3.1129866088 3.2723857271 3.2735602018 
3.0967807392 3.085162128 3.0848625565 3.0958975362 3.0221313603 3.0338932268 3.0041773462 3.0111915231 2.9887412827 
2.9974953866 3.0110061926 3.0446892467 3.0669707664 3.0471212969 3.0999756127 3.0691251532 3.0877102519 3.1039389167 
3.115296044 3.128513468 3.1411972692 3.1532293534 3.1624425491 3.1703543789 3.1672784549 3.1589061175 3.1498617027 
3.1414737211 3.1347607492 3.1285114977 3.1224392535 3.1163168588 3.110742106 3.0936764636 3.0898397897 3.0847880473 
3.0770002891 3.0669452244 3.0566813164 3.0484076441 3.0406227037 3.0306883616 3.1028223112 3.1277183515 3.1438298226 
3.1573771665 3.1672278079 3.1793122491 3.191917066 3.2014720512 3.214485352 3.2286238009 3.2413839323 3.251244674 
3.2581485276 3.2671132135 3.2714744521 3.2735978125 3.2749588563 3.0810696953 3.0811929089 3.0806443531 3.0777317574 
3.0732400029 3.0666781733 3.057747855 3.0492844921 3.0413545897 3.0342607724 3.0367988044 3.2756348313 3.270030855 
3.1260307372 3.273166793 3.1193568593 3.2755952177 3.0829028303 3.262757123 3.1071057121 3.1034542831 3.2742527672 
3.0977105595 3.0794938354 3.079786622 3.1132667467 3.2745064476 3.2759971556 3.089805641 3.0808281662 3.0812384087 
3.0961953329 3.0217452756 3.0341363177 3.0043305968 3.0113194031 2.9890540074 2.9978188838 3.0113290005 3.0450848173 
3.0674453084 3.0470806258 3.100286361 3.0689970671 3.0876697301 3.104066669 3.1155840045 3.1288225047 3.1415955292 
3.153962616 3.1634342732 3.1717202489 3.1689752608 3.160565414 3.1510826337 3.1423452565 3.1355087159 3.1291432776 
3.1230220393 3.116804197 3.1111447766 3.0939470861 3.0900793434 3.085035954 3.0771775206 3.0671298438 3.0568130228 
3.0485348141 3.0407376401 3.0308582347 3.103408285 3.1282793967 3.1444902103 3.1580681013 3.1679284387 3.1800097553 
3.1925561216 3.2022246563 3.2153986592 3.2294332539 3.2421947524 3.2521288333 3.2590099261 3.2679482826 3.2726113093 
3.274827948 3.2763488944 3.075564932 3.077017604 3.0764599216 3.0739277684 3.0697128586 3.0635221241 3.0550404959 
3.0467502623 3.0391923528 3.0324712273 3.034799586 3.276998918 3.2710577164 3.126636727 3.2743511512 3.1198130633 
3.284604982 3.0756838994 3.2635880724 3.1074787795 3.1037711289 3.2755469138 3.0979822738 3.0755722331 3.0756749265 
3.1136822303 3.2758175088 3.2781790437 3.0785109315 3.0760032161 3.0769333207 3.0964787176 3.0220623736 3.0345013483 
3.0044797828 3.01125918 2.9894928275 2.9982652872 3.0117594383 3.0457188447 3.0680927919 3.0468231887 3.1005908321 
3.0687530767 3.0874982656 3.1040815614 3.1157921445 3.1290620915 3.1419112001 3.1546442132 3.164721729 3.1730001455 
3.1708192784 3.1625938846 3.1523752845 3.1432242855 3.1361667249 3.1296542394 3.1234906422 3.1171711636 3.1115000239 
3.0941995344 3.0903134457 3.0852448448 3.0773489974 3.0672533466 3.056917899 3.0486100138 3.0408474051 3.0306225313 
3.1042060536 3.1290255837 3.1453978707 3.1589806907 3.1688391106 3.1808899791 3.1934105164 3.2031261222 3.2164631499 
3.230276673 3.2430209668 3.2528984301 3.2597607439 3.2686097656 3.273365536 3.2758026955 3.2773761337 3.0740602458 
3.0756479981 3.0749994024 3.0727530679 3.0689908298 3.0633259124 3.0548184128 3.0464978869 3.0392853744 3.0326966938 
3.0348644481 3.278295352 3.2718124556 3.1271720244 3.2751725711 3.1202032004 3.2762808949 3.0732995321 3.2642554677 
3.1077902726 3.1040286121 3.2765350686 3.098283614 3.0741890589 3.0744421717 3.1140375246 3.2768101591 3.2792926917 
3.0775421886 3.0747315693 3.0756983902 3.0968040246 3.0229798794 3.0347586539 3.0047262023 3.0114006393 2.9902269717 
2.9989151664 3.0123603754 3.0468087251 3.0689839098 3.0464291261 3.1009254914 3.0682526564 3.0870662037 3.1038720911 
3.1157243845 3.1289644049 3.1418558418 3.1550649413 3.1657563184 3.1742432105 3.1727353955 3.1649267943 3.1536841703 
3.1439471547 3.1365731068 3.1298755478 3.1237867868 3.1174491834 3.111882294 3.0944974137 3.090647755 3.0854959182 
3.0776239029 3.0674063189 3.0570598538 3.048693527 3.0409507724 3.0298924319 3.1051221314 3.129998581 3.1462964964 
3.1598525377 3.1697857926 3.1816976855 3.194296002 3.2041349327 3.2175204465 3.2311669446 3.2437257028 3.2539786438 
3.2606953614 3.2693624459 3.2746827833 3.2772874426 3.279080137 3.0779797482 3.0784576526 3.0780913434 3.0754056224 
3.0716001554 3.0660567702 3.0572906058 3.0489613698 3.0416009154 3.0349777949 3.036914097 3.2798181051 3.2726161879 
3.1275206764 3.276401361 3.1205108011 3.2287190963 3.0788288167 3.2650387128 3.1080744243 3.1043392594 3.27783748 
3.0986714727 3.0770493292 3.0772613172 3.1144680011 3.2782145854 3.2896103317 3.0792033288 3.0788631538 3.0786241804 
3.097228847 3.023794954 3.0335702674 3.0039584465 3.0114546925 2.9900612222 2.9992050027 3.0127366513 3.0470078032 
3.0696575114 3.0453893104 3.1015292909 3.066751501 3.0858407115 3.1029572175 3.1151185228 3.1283526988 3.1407059294 
3.1553872422 3.1655548258 3.1755393801 3.175406409 3.167952725 3.155355477 3.1447850227 3.1369599542 3.1300911607 
3.1239967071 3.1185679025 3.1127225387 3.0949386556 3.0910842892 3.0858265004 3.0779499797 3.0675322433 3.0571592181 
3.0487117735 3.0409193045 3.0286759172 3.1057549064 3.1308165651 3.147014166 3.1604136703 3.1704834225 3.1824269913 
3.1950556689 3.205131627 3.2186236724 3.2322414643 3.2452902169 3.2551828085 3.2621671262 3.2710431369 3.2776786813 
3.2796619646 3.2804342468 3.0761030225 3.0797835274 3.0799264435 3.0779849031 3.0742769204 3.0685351416 3.0598270109 
3.051785038 3.044101309 3.037319466 3.0396516139 3.2861000311 3.2746932571 3.127874897 3.2793351045 3.1208760971 
3.0765401995 3.0788013905 3.2663788055 3.1087643162 3.1047999759 3.2802162708 3.0992097657 3.0792219541 3.0791701534 
3.1154896731 3.2805791816 3.2336816932 3.0779634443 3.0796618431 3.079839287 3.097631891 3.0235508872 3.0324358777 
3.0017365358 3.0064688261 2.9884978638 2.9981164651 3.012383062 3.0464514148 3.0697918366 3.0437173682 3.101680533 
3.0654528695 3.084271198 3.1022042413 3.1140068811 3.1271952474 3.1392009035 3.1562263128 3.1671947576 3.1782142066 
3.1806447198 3.1724740877 3.158486438 3.1460556906 3.1374438164 3.1308216578 3.124420707 3.1184570837 3.1134426733 
3.0955205843 3.091571017 3.0862172086 3.0785643772 3.0677347992 3.0571980324 3.0484718734 3.0406826283 3.0268254851 
3.1065733406 3.1315295596 3.1480905187 3.1616944609 3.1718259424 3.1837437272 3.1961140328 3.2070793439 3.2210835043 
3.2351775937 3.2486822959 3.2617904526 3.2662101605 3.2746614593 3.2799725525 3.2788474592 3.2894294359 3.0787354105 
3.0808472121 3.0809088763 3.0804484948 3.0759766841 3.0702210246 3.0612232913 3.0534214481 3.0454559243 3.0384624273 
3.0413427828 3.2473807581 3.277904088 3.1280391351 3.280068215 3.1214990889 3.0804090592 3.0800625704 3.2697903602 
3.1088253993 3.1049956994 3.2804704476 3.0997241054 3.081466501 3.0818554075 3.11605937 3.2797361857 3.0523684223 
3.0788394848 3.0802535582 3.0810904813 3.0980855268 3.0256903144 3.034052447 3.0046809427 3.0079415857 2.9898836447 
3.000655143 3.0154442669 3.0505097869 3.0714107411 3.0464808158 3.1018115998 3.0656218214 3.0859167675 3.1017755597 
3.1154919416 3.1288137543 3.1408657421 3.1606972227 3.1814148892 3.1855254034 3.1844685068 3.1750970771 3.1593159357 
3.1466763768 3.1375347 3.1306020835 3.1234875304 3.1163867539 3.1112267797 3.0952387179 3.0928238672 3.087046867 
3.077723349 3.0680600151 3.0567802476 3.0475847597 3.0390429237 3.0247802096 3.1054028219 3.1323604875 3.1533797356 
3.1673240114 3.1763421297 3.1927675578 3.2017739527 3.2122852431 3.2304668281 3.2425028883 3.2583762018 3.2675364359 