# vtk DataFile Version 4.2
vtk output
ASCII
DATASET POLYDATA
POINTS 9947 float
2464.39 -1677.04 5800 2464.96 -1677.63 5800 2475.21 -1677.04 5800 
2454.63 -1664.04 5800 2493.96 -1675.97 5800 2522.96 -1674.31 5800 
2551.96 -1672.65 5800 2580.96 -1670.99 5800 2609.96 -1669.33 5800 
2638.96 -1666.58 5800 2643.03 -1664.04 5800 2449.72 -1651.04 5800 
2660.88 -1651.04 5800 2446.06 -1638.04 5800 2667.97 -1645.94 5800 
2678.76 -1638.03 5800 2442.4 -1625.04 5800 2696.51 -1625.03 5800 
2438.74 -1612.04 5800 2696.97 -1624.7 5800 2714.26 -1612.03 5800 
2435.08 -1599.04 5800 2435.96 -1602.17 5800 2725.97 -1603.45 5800 
2732.01 -1599.03 5800 2431.42 -1586.04 5800 2749.76 -1586.03 5800 
2427.76 -1573.04 5800 2754.97 -1582.21 5800 2767.51 -1573.03 5800 
2424.1 -1560.04 5800 2783.98 -1560.97 5800 2785.26 -1560.02 5800 
2420.44 -1547.04 5800 2803.01 -1547.02 5800 2416.78 -1534.03 5800 
2812.98 -1539.72 5800 2820.76 -1534.02 5800 2413.12 -1521.03 5800 
2838.51 -1521.02 5800 2409.46 -1508.03 5800 2841.98 -1518.48 5800 
2856.26 -1508.02 5800 2403.66 -1495.03 5800 2406.97 -1502.07 5800 
2870.98 -1497.23 5800 2873.06 -1495.02 5800 2390.52 -1482.03 5800 
2886.33 -1482.01 5800 2377.37 -1469.03 5800 2377.97 -1469.62 5800 
2896.89 -1469.01 5800 2364.23 -1456.03 5800 2899.99 -1464.7 5800 
2904.29 -1456.01 5800 2351.08 -1443.03 5800 2910.85 -1443.01 5800 
2337.38 -1430.03 5800 2348.97 -1440.94 5800 2916.11 -1430.01 5800 
2323.08 -1417.03 5800 2920.42 -1417.01 5800 2308.23 -1404.03 5800 
2319.97 -1414.27 5800 2925.98 -1404.01 5800 2293.33 -1391.03 5800 
2928.99 -1397.16 5800 2932.21 -1391.01 5800 2278.42 -1378.03 5800 
2290.97 -1388.97 5800 2938.04 -1378 5800 2263.51 -1365.03 5800 
2943.14 -1365 5800 2248.61 -1352.03 5800 2261.97 -1363.68 5800 
2948.86 -1352 5800 2233.7 -1339.03 5800 2954.58 -1339 5800 
2230.39 -1326.03 5800 2232.97 -1337.95 5800 2958 -1331.15 5800 
2960.26 -1326 5800 2229.77 -1313.02 5800 2965.64 -1313 5800 
2229.15 -1300.02 5800 2971.1 -1300 5800 2228.54 -1287.02 5800 
2976.56 -1287 5800 2227.92 -1274.02 5800 2982.01 -1274 5800 
2227.3 -1261.02 5800 2987.01 -1262.1 5800 2987.47 -1260.99 5800 
2226.68 -1248.02 5800 2992.93 -1247.99 5800 2226.18 -1235.02 5800 
2998.39 -1234.99 5800 2225.68 -1222.02 5800 3003.84 -1221.99 5800 
2225.17 -1209.02 5800 3009.3 -1208.99 5800 2224.66 -1196.02 5800 
3014.76 -1195.99 5800 2224.14 -1183.01 5800 3016.01 -1193 5800 
3020.21 -1182.99 5800 2223.61 -1170.01 5800 3025.67 -1169.99 5800 
2223.08 -1157.01 5800 3033.65 -1156.98 5800 2222.54 -1144.01 5800 
3042.25 -1143.98 5800 2222.01 -1131.01 5800 3045.02 -1139.79 5800 
3052.29 -1130.98 5800 2219.11 -1118.01 5800 3063.81 -1117.98 5800 
2214.51 -1105.01 5800 3074.02 -1107.33 5800 3074.87 -1104.98 5800 
2210.08 -1092.01 5800 3079.53 -1091.98 5800 2205.83 -1079.01 5800 
3084.21 -1078.98 5800 2201.63 -1066.01 5800 2203.99 -1073.32 5800 
3088.88 -1065.98 5800 2197.43 -1053.01 5800 3093.55 -1052.97 5800 
2193.22 -1040 5800 3098.22 -1039.97 5800 2189.02 -1027 5800 
3102.89 -1026.97 5800 2184.79 -1014 5800 3103.03 -1026.59 5800 
3107.56 -1013.97 5800 2179.78 -1001 5800 3112.23 -1000.97 5800 
2174.61 -988.001 5800 2175 -988.967 5800 3116.9 -987.969 5800 
2169.45 -975 5800 3121.56 -974.967 5800 2164.28 -961.999 5800 
3126.2 -961.966 5800 2161.38 -948.998 5800 3130.84 -948.965 5800 
2160.43 -935.997 5800 3132.04 -945.624 5800 3135.48 -935.964 5800 
1217.97 -925.014 5800 1211.77 -923.029 5800 1225.84 -923.029 5800 
2160.16 -922.997 5800 3140.12 -922.963 5800 1193.98 -910.029 5800 
1246.97 -917.643 5800 1275.97 -910.253 5800 1276.86 -910.026 5800 
2161.88 -909.995 5800 3144.76 -909.962 5800 1188.97 -903.167 5800 
1184.66 -897.028 5800 1304.98 -902.863 5800 1327.89 -897.023 5800 
2163.61 -896.994 5800 3149.4 -896.96 5800 1175.6 -884.027 5800 
1333.98 -895.473 5800 1362.98 -888.083 5800 1378.92 -884.02 5800 
2165.34 -883.993 5800 3154.04 -883.959 5800 1166.41 -871.027 5800 
1391.98 -880.693 5800 1420.98 -873.303 5800 1449.98 -872.167 5800 
1478.98 -871.643 5800 1507.98 -871.118 5800 1513.72 -871.015 5800 
2167.07 -870.992 5800 3158.68 -870.958 5800 3683.06 -877.062 5800 
3679.12 -870.94 5800 3688.94 -870.94 5800 1159.97 -862.035 5800 
1157.15 -858.026 5800 1536.99 -870.594 5800 1565.99 -870.07 5800 
1594.99 -869.547 5800 1623.99 -869.156 5800 1641.57 -858.009 5800 
2168.8 -857.991 5800 2572.96 -857.977 5800 2581.02 -858.591 5800 
2582.03 -857.977 5800 3161.04 -864.338 5800 3163.32 -857.957 5800 
3665.72 -857.94 5800 3698.56 -857.938 5800 1147.99 -845.025 5800 
1652.99 -850.9 5800 1657.14 -845.008 5800 2170.52 -844.99 5800 
2520.79 -844.978 5800 2523.02 -845.899 5800 2552.02 -856.328 5800 
2603.26 -844.975 5800 3169.44 -844.956 5800 3654.06 -851.537 5800 
3650.28 -844.939 5800 3708.58 -844.937 5800 1138.83 -832.025 5800 
1666.28 -832.007 5800 2172.25 -831.989 5800 2489.65 -831.978 5800 
2494.02 -833.905 5800 2610.03 -840.83 5800 2624.15 -831.974 5800 
3176.59 -831.954 5800 3642.83 -831.938 5800 3712.06 -840.557 5800 
3720.55 -831.936 5800 1130.98 -820.873 5800 1129.67 -819.024 5800 
1675.43 -819.005 5800 2173.98 -818.988 5800 2444.85 -818.979 5800 
2465.02 -821.382 5800 2639.03 -822.685 5800 2644.18 -818.972 5800 
3182.19 -818.953 5800 3635.38 -818.938 5800 3729.93 -818.934 5800 
1120.51 -806.023 5800 1682 -809.677 5800 1684.71 -806.004 5800 
2172.57 -805.987 5800 2424.07 -805.978 5800 2436.02 -818.269 5800 
2662.22 -805.97 5800 3186.9 -805.952 5800 3627.83 -805.937 5800 
3739.57 -805.933 5800 1111.36 -793.023 5800 1701.17 -793.002 5800 
2171.09 -792.986 5800 2415.21 -792.978 5800 2668.03 -801.822 5800 
2681.48 -792.969 5800 3190.05 -795.959 5800 3190.75 -792.951 5800 
3625.06 -801.296 5800 3620.02 -792.936 5800 3741.07 -804.133 5800 
3753 -792.932 5800 1102.2 -780.022 5800 1711 -787.905 5800 
1725.2 -780 5800 2169.46 -779.985 5800 2406.69 -779.977 5800 
2407.02 -780.385 5800 2697.03 -783.738 5800 2701.34 -779.967 5800 
3193.79 -779.95 5800 3612.17 -779.935 5800 3763.11 -779.93 5800 
1101.98 -779.71 5800 1092.9 -767.021 5800 1740 -771.718 5800 
1748.26 -766.999 5800 2167.83 -766.984 5800 2396.68 -766.976 5800 
2714.13 -766.965 5800 3196.83 -766.949 5800 3604.33 -766.935 5800 
3770.07 -771.132 5800 3775.2 -766.929 5800 1083.42 -754.021 5800 
1769 -755.147 5800 1771.02 -753.997 5800 2166.13 -753.983 5800 
2387.8 -753.976 5800 2724.45 -753.964 5800 3199.88 -753.948 5800 
3596.48 -753.934 5800 3788.98 -753.927 5800 1073.84 -741.02 5800 
1794.54 -740.995 5800 2164.32 -740.982 5800 2379.86 -740.975 5800 
2726.04 -751.715 5800 2731.32 -740.963 5800 3202.94 -740.947 5800 
3596.07 -753.25 5800 3588.63 -740.933 5800 3798.1 -740.926 5800 
1072.98 -739.851 5800 1064.26 -728.019 5800 1798.01 -739.191 5800 
1819.59 -727.993 5800 2162.5 -727.981 5800 2370.56 -727.974 5800 
2378.03 -737.763 5800 2737.7 -727.962 5800 3206 -727.945 5800 
3580.79 -727.932 5800 3799.07 -739.65 5800 3813 -727.924 5800 
1054.69 -715.019 5800 1827.01 -723.814 5800 1833.18 -714.992 5800 
2160.68 -714.98 5800 2360.29 -714.974 5800 2744.08 -714.96 5800 
3209.07 -714.944 5800 3572.94 -714.932 5800 3825.3 -714.923 5800 
1043.98 -702.409 5800 1043.67 -702.018 5800 1842.29 -701.99 5800 
2158.86 -701.98 5800 2351.13 -701.973 5800 2750.47 -701.959 5800 
3212.05 -701.943 5800 3567.07 -705.205 5800 3565.15 -701.931 5800 
3828.08 -710.968 5800 3837.36 -701.922 5800 1027.21 -689.018 5800 
1851.39 -688.989 5800 2157.05 -688.979 5800 2342.96 -688.972 5800 
2349.03 -698.732 5800 2755.04 -692.699 5800 2757.1 -688.958 5800 
3214.66 -688.942 5800 3557.46 -688.93 5800 3851.38 -688.92 5800 
1014.98 -679.383 5800 1010.71 -676.017 5800 1856.01 -682.388 5800 
1860.49 -675.988 5800 2156.54 -675.978 5800 2336.89 -675.971 5800 
2763.38 -675.957 5800 3217.27 -675.941 5800 3550.69 -675.93 5800 
3857.08 -682.714 5800 3861.98 -675.919 5800 994.214 -663.017 5800 
1869.6 -662.987 5800 2158.27 -662.977 5800 2332.32 -662.971 5800 
2769.75 -662.956 5800 3219.06 -667.043 5800 3219.84 -662.94 5800 
3546.99 -662.929 5800 3868.2 -662.918 5800 985.983 -656.531 5800 
977.717 -650.016 5800 1878.7 -649.985 5800 2161.21 -649.975 5800 
2328.76 -649.97 5800 2776.19 -649.954 5800 3222.29 -649.939 5800 
3544.61 -649.928 5800 3872.65 -649.916 5800 961.219 -637.016 5800 
1885.02 -642.597 5800 1890.3 -636.984 5800 2164.15 -636.974 5800 
2324.76 -636.969 5800 2782.62 -636.953 5800 3224.75 -636.938 5800 
3542.95 -636.927 5800 3874.89 -636.915 5800 956.984 -633.678 5800 
944.722 -624.015 5800 1902.83 -623.982 5800 2164.12 -623.973 5800 
2322.01 -623.968 5800 2784.05 -634.065 5800 2790.15 -623.952 5800 
3227.21 -623.937 5800 3541.3 -623.926 5800 3873.81 -623.914 5800 
928.225 -611.015 5800 1914.02 -612.381 5800 1915.37 -610.981 5800 
2163.45 -610.972 5800 2316.36 -610.967 5800 2320.03 -618.733 5800 
2796.74 -610.951 5800 3229.67 -610.936 5800 3539.65 -610.925 5800 
3872.81 -610.913 5800 927.985 -610.826 5800 914.66 -598.014 5800 
1927.9 -597.979 5800 2162.96 -597.971 5800 2310.01 -597.966 5800 
2532.67 -597.959 5800 2552.04 -602.876 5800 2581.04 -605.672 5800 
2590.73 -597.957 5800 2801.13 -597.949 5800 3232.3 -597.935 5800 
3538.08 -598.504 5800 3538.01 -597.924 5800 3871.89 -597.912 5800 
909.604 -585.014 5800 1940.51 -584.978 5800 2161.73 -584.97 5800 
2304.8 -584.966 5800 2462.22 -584.96 5800 2465.04 -586.954 5800 
2494.04 -593.715 5800 2523.04 -595.68 5800 2607.06 -584.955 5800 
2804.12 -584.948 5800 3235.06 -584.933 5800 3536.42 -584.923 5800 
3871.02 -584.911 5800 909.182 -572.013 5800 1943.02 -582.456 5800 
1953.57 -571.977 5800 2159.96 -571.969 5800 2298.55 -571.965 5800 
2443.81 -571.96 5800 2610.05 -582.578 5800 2620.3 -571.954 5800 
2806.3 -571.947 5800 3237.82 -571.932 5800 3534.76 -571.922 5800 
3870.59 -571.911 5800 908.76 -559.012 5800 1966.66 -558.975 5800 
2158.45 -558.969 5800 2292.52 -558.964 5800 2427.58 -558.959 5800 
2436.04 -566.393 5800 2629.29 -558.952 5800 2807.6 -558.946 5800 
3240.58 -558.931 5800 3532.6 -558.921 5800 3870.23 -558.91 5800 
908.337 -546.011 5800 1972.03 -552.948 5800 1974.81 -545.974 5800 
[...]
POINT_DATA 9947
SCALARS Pressure double
LOOKUP_TABLE default
3.0974222795 3.0974222795 3.0974222795 3.0974222795 3.0974222795 3.0974222795 3.0974222795 3.0974222795 3.0974222795 
3.0974222795 3.0974222795 3.0974222795 3.0974222795 3.0974222795 3.0974222795 3.0974222795 3.0974222795 3.0974222795 
3.0974222795 3.0974222795 3.0974222795 3.0974222795 3.0974222795 3.0974222795 3.0974222795 3.0974222795 3.0974222795 
3.0974222795 3.0974222795 3.0974222795 3.0974222795 3.0974222795 3.0974222795 3.0974222795 3.0974222795 3.0974222795 
3.0974222795 3.0974222795 3.0974222795 3.0974222795 3.0974222795 3.0974222795 3.0974222795 3.0974222795 3.0974222795 
3.0974222795 3.0974222795 3.0974222795 3.0974222795 3.0974222795 3.0974222795 3.0974222795 3.0974222795 3.0974222795 
3.0974222795 3.0974222795 3.0974222795 3.0974222795 3.0974222795 3.0974222795 3.0974222795 3.0974222795 3.0974222795 
3.0974222795 3.0974222795 3.0974222795 3.0974222795 3.0974222795 3.0974222795 3.0974222795 3.0974222795 3.0974222795 
3.0974222795 3.0974222795 3.0974222795 3.0974222795 3.0974222795 3.0974222795 3.0974222795 3.0974222795 3.0974222795 
3.0974222795 3.0974222795 3.0974222795 3.0974222795 3.0974222795 3.0974222795 3.0974222795 3.0974222795 3.0974222795 
3.0974222795 3.0974222795 3.0974222795 3.0974222795 3.0974222795 3.0974222795 3.0974222795 3.0974222795 3.0974222795 
3.0974222795 3.0974222795 3.0974222795 3.0974222795 3.0974222795 3.0974222795 3.0974222795 3.0974222795 3.0974222795 
3.0974222795 3.0974222795 3.0974222795 3.0974222795 3.0974222795 3.0974222795 3.0974222795 3.0974222795 3.0974222795 
3.0974222795 3.0974222795 3.0974222795 3.0974222795 3.0974222795 3.0974222795 3.0974222795 3.0974222795 3.0974222795 
3.0974222795 3.0974222795 3.0974222795 3.0974222795 3.0974222795 3.0974222795 3.0974222795 3.0974222795 3.0974222795 
3.0974222795 3.0974222795 3.0974222795 3.0974222795 3.0974222795 3.0974222795 3.0974222795 3.0974222795 3.0974222795 
3.0974222795 3.0974222795 3.0974222795 3.0974222795 3.0974222795 3.0974222795 3.0848669192 3.0848669192 3.0848669192 
3.0974222795 3.0974222795 3.0848669192 3.0848669192 3.0848669192 3.0848669192 3.0974222795 3.0974222795 3.0848669192 
3.0848669192 3.0848669192 3.0848669192 3.0974222795 3.0974222795 3.0848669192 3.0848669192 3.0848669192 3.0848669192 
3.0974222795 3.0974222795 3.0848669192 3.0848669192 3.0848669192 3.0848669192 3.0848669192 3.0848669192 3.0848669192 
3.0974222795 3.0974222795 3.0848669192 3.0848669192 3.0848669192 3.0848669192 3.0848669192 3.0848669192 3.0848669192 
3.0848669192 3.0848669192 3.0848669192 3.0974222795 3.1099776398 3.1099776398 3.1099776398 3.0974222795 3.0974222795 
3.0848669192 3.0848669192 3.0848669192 3.0848669192 3.0848669192 3.0974222795 3.1099776398 3.1099776398 3.1099776398 
3.1099776398 3.0974222795 3.0848669192 3.0848669192 3.0848669192 3.0848669192 3.0848669192 3.0974222795 3.1099776398 
3.1099776398 3.1099776398 3.1099776398 3.0974222795 3.0848669192 3.0848669192 3.0848669192 3.0848669192 3.0848669192 
3.0848669192 3.0974222795 3.1099776398 3.1099776398 3.1099776398 3.1099776398 3.0974222795 3.0848669192 3.0848669192 
3.0848669192 3.0848669192 3.0848669192 3.0974222795 3.1099776398 3.1099776398 3.1099776398 3.0974222795 3.0848669192 
3.0848669192 3.0848669192 3.0848669192 3.0974222795 3.1099776398 3.1099776398 3.1099776398 3.0974222795 3.0974222795 
3.0848669192 3.0848669192 3.0848669192 3.0848669192 3.0848669192 3.0848669192 3.0848669192 3.0974222795 3.1099776398 
3.1099776398 3.1099776398 3.1099776398 3.0974222795 3.0848669192 3.0848669192 3.0848669192 3.0848669192 3.0848669192 
3.0848669192 3.0974222795 3.1099776398 3.1099776398 3.0974222795 3.0848669192 3.0848669192 3.0848669192 3.0848669192 
3.0848669192 3.0848669192 3.0974222795 3.1099776398 3.1099776398 3.0974222795 3.0848669192 3.0848669192 3.0848669192 
3.0848669192 3.0974222795 3.1099776398 3.1099776398 3.1099776398 3.0974222795 3.0848669192 3.0848669192 3.0848669192 
3.0848669192 3.0848669192 3.0848669192 3.0848669192 3.0974222795 3.1099776398 3.1099776398 3.1099776398 3.0974222795 
3.0848669192 3.0848669192 3.0848669192 3.0848669192 3.0848669192 3.0848669192 3.0974222795 3.1099776398 3.1099776398 
3.0974222795 3.0848669192 3.0848669192 3.0848669192 3.0848669192 3.0848669192 3.0974222795 3.1099776398 3.1099776398 
3.0974222795 3.0848669192 3.0848669192 3.0848669192 3.0848669192 3.0848669192 3.0848669192 3.0974222795 3.1099776398 
3.1099776398 3.1099776398 3.1099776398 3.0974222795 3.0848669192 3.0848669192 3.0848669192 3.0848669192 3.0848669192 
3.0848669192 3.0974222795 3.1099776398 3.1099776398 3.0974222795 3.0848669192 3.0848669192 3.0848669192 3.0848669192 
3.0848669192 3.0974222795 3.1099776398 3.1099776398 3.0974222795 3.0974222795 3.0848669192 3.0848669192 3.0848669192 
3.0848669192 3.0848669192 3.0974222795 3.1099776398 3.1099776398 3.0974222795 3.0848669192 3.0848669192 3.0848669192 
3.0848669192 3.0848669192 3.0974222795 3.1099776398 3.1099776398 3.0974222795 3.0848669192 3.0848669192 3.0848669192 
3.0848669192 3.0848669192 3.0974222795 3.1099776398 3.1099776398 3.1099776398 3.0974222795 3.0848669192 3.0848669192 
3.0848669192 3.0848669192 3.0848669192 3.0974222795 3.1099776398 3.1099776398 3.1099776398 3.0974222795 3.0848669192 
3.0848669192 3.0848669192 3.0848669192 3.0848669192 3.0974222795 3.1099776398 3.1225330001 3.1225330001 3.1225330001 
3.1225330001 3.1099776398 3.0974222795 3.0848669192 3.0848669192 3.0848669192 3.0848669192 3.0848669192 3.0974222795 
3.1099776398 3.1225330001 3.1225330001 3.1225330001 3.1225330001 3.1225330001 3.1099776398 3.0974222795 3.0848669192 
3.0848669192 3.0848669192 3.0848669192 3.0848669192 3.0974222795 3.1099776398 3.1225330001 3.1225330001 3.1225330001 
3.1099776398 3.0974222795 3.0848669192 3.0848669192 3.0848669192 3.0848669192 3.0974222795 3.1099776398 3.1225330001 
3.1225330001 3.1225330001 3.1099776398 3.0974222795 3.0848669192 3.0848669192 3.0848669192 3.0848669192 3.0848669192 
3.0974222795 3.1099776398 3.1099776398 3.1225330001 3.1225330001 3.1099776398 3.0974222795 3.0848669192 3.0848669192 
3.0848669192 3.0848669192 3.0974222795 3.1099776398 3.1225330001 3.1225330001 3.1225330001 3.1099776398 3.0974222795 
3.0848669192 3.0848669192 3.0848669192 3.0848669192 3.0974222795 3.1099776398 3.1225330001 3.1225330001 3.1225330001 
3.1099776398 3.0974222795 3.0974222795 3.0848669192 3.0848669192 3.0848669192 3.0848669192 3.0974222795 3.1099776398 
3.1225330001 3.1225330001 3.1099776398 3.0974222795 3.0848669192 3.0848669192 3.0848669192 3.0848669192 3.0848669192 
3.0974222795 3.1099776398 3.1225330001 3.1225330001 3.1099776398 3.1099776398 3.0974222795 3.0848669192 3.0848669192 
3.0848669192 3.0848669192 3.0974222795 3.1099776398 3.1225330001 3.1225330001 3.1225330001 3.1225330001 3.1099776398 
3.0974222795 3.0848669192 3.0848669192 3.0848669192 3.0848669192 3.0974222795 3.1099776398 3.1099776398 3.1225330001 
3.1225330001 3.1099776398 3.0974222795 3.0848669192 3.0848669192 3.0848669192 3.0848669192 3.0974222795 3.1099776398 
3.1225330001 3.1350883604 3.1350883604 3.1350883604 3.1225330001 3.1099776398 3.1099776398 3.1099776398 3.1099776398 
3.1099776398 3.1099776398 3.1099776398 3.1099776398 3.0974222795 3.0848669192 3.0848669192 3.0848669192 3.0848669192 
3.0848669192 3.0974222795 3.1099776398 3.1225330001 3.1225330001 3.1350883604 3.1350883604 3.1350883604 3.1350883604 
3.1350883604 3.1225330001 3.1225330001 3.1099776398 3.1099776398 3.0974222795 3.0848669192 3.0848669192 3.0848669192 
3.0848669192 3.0848669192 3.0974222795 3.1099776398 3.1225330001 3.1350883604 3.1350883604 3.1350883604 3.1225330001 
3.1099776398 3.1099776398 3.0974222795 3.0848669192 3.0848669192 3.0848669192 3.0848669192 3.0974222795 3.1099776398 
3.1225330001 3.1350883604 3.1350883604 3.1350883604 3.1225330001 3.1099776398 3.0974222795 3.0848669192 3.0848669192 
3.0848669192 3.0848669192 3.0848669192 3.0848669192 3.0848669192 3.0848669192 3.0848669192 3.0974222795 3.1099776398 
3.1225330001 3.1350883604 3.1350883604 3.1225330001 3.1099776398 3.1099776398 3.0974222795 3.0848669192 3.0848669192 
3.0848669192 3.0848669192 3.0848669192 3.0848669192 3.0848669192 3.0848669192 3.0848669192 3.0974222795 3.1099776398 
3.1225330001 3.1350883604 3.1350883604 3.1350883604 3.1350883604 3.1225330001 3.1099776398 3.0974222795 3.0848669192 
3.0848669192 3.0848669192 3.0848669192 3.0848669192 3.0848669192 3.0848669192 3.0848669192 3.0848669192 3.0974222795 
3.1099776398 3.1225330001 3.1225330001 3.1350883604 3.1350883604 3.1225330001 3.1099776398 3.0974222795 3.0974222795 
3.0848669192 3.0848669192 3.0848669192 3.0848669192 3.0848669192 3.0848669192 3.0848669192 3.0848669192 3.0848669192 
3.0848669192 3.0848669192 3.0848669192 3.0848669192 3.0848669192 3.0974222795 3.1099776398 3.1225330001 3.1350883604 
3.1350883604 3.1350883604 3.1225330001 3.1099776398 3.1099776398 3.0974222795 3.0848669192 3.0848669192 3.0848669192 
3.0848669192 3.0848669192 3.0848669192 3.0848669192 3.0848669192 3.0848669192 3.0848669192 3.0848669192 3.0848669192 
3.0974222795 3.1099776398 3.1225330001 3.1350883604 3.1350883604 3.1225330001 3.1099776398 3.0974222795 3.0848669192 
3.0848669192 3.0848669192 3.0848669192 3.0848669192 3.0848669192 3.0848669192 3.0848669192 3.0848669192 3.0848669192 
3.0848669192 3.0848669192 3.0848669192 3.0848669192 3.0848669192 3.0974222795 3.1099776398 3.1225330001 3.1350883604 
3.1476437207 3.1476437207 3.1476437207 3.1350883604 3.1225330001 3.1225330001 3.1099776398 3.1099776398 3.0974222795 
3.0848669192 3.0848669192 3.0848669192 3.0848669192 3.0848669192 3.0848669192 3.0848669192 3.0848669192 3.0848669192 
3.0848669192 3.0848669192 3.0723115588 3.0723115588 3.0723115588 3.0723115588 3.0723115588 3.0723115588 3.0848669192 
3.0848669192 3.0974222795 3.1099776398 3.1225330001 3.1350883604 3.1350883604 3.1476437207 3.1476437207 3.1476437207 
3.1476437207 3.1476437207 3.1350883604 3.1225330001 3.1099776398 3.0974222795 3.0848669192 3.0848669192 3.0848669192 
3.0848669192 3.0848669192 3.0848669192 3.0848669192 3.0848669192 3.0848669192 3.0848669192 3.0848669192 3.0848669192 
3.0848669192 3.0848669192 3.0848669192 3.0723115588 3.0723115588 3.0723115588 3.0723115588 3.0723115588 3.0848669192 
3.0974222795 3.1099776398 3.1099776398 3.1225330001 3.1350883604 3.1476437207 3.1476437207 3.1350883604 3.1350883604 
3.1225330001 3.1099776398 3.0974222795 3.0848669192 3.0848669192 3.0848669192 3.0848669192 3.0848669192 3.0848669192 
3.0848669192 3.0848669192 3.0848669192 3.0848669192 3.0848669192 3.0848669192 3.0848669192 3.0848669192 3.0848669192 
3.0848669192 3.0723115588 3.0723115588 3.0723115588 3.0723115588 3.0848669192 3.0974222795 3.1099776398 3.1225330001 
3.1225330001 3.1350883604 3.1476437207 3.1476437207 3.1476437207 3.1476437207 3.1350883604 3.1225330001 3.1099776398 
3.0974222795 3.0848669192 3.0848669192 3.0848669192 3.0848669192 3.0848669192 3.0848669192 3.0848669192 3.0848669192 
3.0848669192 3.0848669192 3.0848669192 3.0848669192 3.0848669192 3.0848669192 3.0848669192 3.0848669192 3.0848669192 
3.0723115588 3.0723115588 3.0723115588 3.0848669192 3.0974222795 3.1099776398 3.1225330001 3.1350883604 3.1476437207 
3.1476437207 3.1350883604 3.1225330001 3.1099776398 3.0974222795 3.0848669192 3.0848669192 3.0848669192 3.0848669192 
3.0848669192 3.0848669192 3.0848669192 3.0848669192 3.0848669192 3.0848669192 3.0848669192 3.0848669192 3.0848669192 
3.0848669192 3.0723115588 3.0723115588 3.0723115588 3.0723115588 3.0848669192 3.0974222795 3.1099776398 3.1225330001 
3.1350883604 3.1350883604 3.1476437207 3.1476437207 3.1476437207 3.1350883604 3.1225330001 3.1099776398 3.1099776398 
3.0974222795 3.0848669192 3.0848669192 3.0848669192 3.0848669192 3.0848669192 3.0848669192 3.0848669192 3.0848669192 
3.0848669192 3.0848669192 3.0848669192 3.0848669192 3.0848669192 3.0848669192 3.0848669192 3.0848669192 3.0723115588 
3.0723115588 3.0723115588 3.0848669192 3.0974222795 3.1099776398 3.1225330001 3.1350883604 3.1476437207 3.1476437207 
3.1476437207 3.1350883604 3.1225330001 3.1099776398 3.0974222795 3.0848669192 3.0848669192 3.0848669192 3.0848669192 
3.0848669192 3.0848669192 3.0848669192 3.0848669192 3.0848669192 3.0848669192 3.0848669192 3.0848669192 3.0848669192 
3.0848669192 3.0848669192 3.0723115588 3.0723115588 3.0723115588 3.0848669192 3.0974222795 3.1099776398 3.1225330001 
3.1350883604 3.1476437207 3.1476437207 3.1476437207 3.1350883604 3.1225330001 3.1099776398 3.0974222795 3.0848669192 
3.0848669192 3.0848669192 3.0848669192 3.0848669192 3.0848669192 3.0848669192 3.0848669192 3.0848669192 3.0848669192 
3.0848669192 3.0848669192 3.0848669192 3.0723115588 3.0723115588 3.0723115588 3.0848669192 3.0974222795 3.1099776398 
3.1225330001 3.1225330001 3.1350883604 3.1350883604 3.1476437207 3.160199081 3.160199081 3.160199081 3.160199081 
3.1476437207 3.1350883604 3.1225330001 3.1099776398 3.0974222795 3.0848669192 3.0848669192 3.0848669192 3.0848669192 
3.0848669192 3.0848669192 3.0848669192 3.0848669192 3.0848669192 3.0848669192 3.0848669192 3.0848669192 3.0848669192 
3.0723115588 3.0723115588 3.0848669192 3.0848669192 3.0974222795 3.1099776398 3.1225330001 3.1350883604 3.1476437207 
3.1476437207 3.160199081 3.160199081 3.160199081 3.160199081 3.1476437207 3.1350883604 3.1225330001 3.1099776398 
3.0974222795 3.0848669192 3.0848669192 3.0848669192 3.0848669192 3.0848669192 3.0848669192 3.0848669192 3.0848669192 
3.0848669192 3.0848669192 3.0848669192 3.0723115588 3.0723115588 3.0723115588 3.0848669192 3.0974222795 3.1099776398 
3.1225330001 3.1350883604 3.1476437207 3.160199081 3.160199081 3.160199081 3.1476437207 3.1350883604 3.1225330001 
3.1099776398 3.0974222795 3.0848669192 3.0848669192 3.0848669192 3.0848669192 3.0848669192 3.0848669192 3.0848669192 
3.0848669192 3.0848669192 3.0848669192 3.0848669192 3.0848669192 3.0723115588 3.0723115588 3.0848669192 3.0974222795 
3.1099776398 3.1225330001 3.1350883604 3.1476437207 3.160199081 3.160199081 3.160199081 3.1476437207 3.1350883604 
3.1225330001 3.1099776398 3.0974222795 3.0848669192 3.0848669192 3.0848669192 3.0848669192 3.0848669192 3.0848669192 
3.0848669192 3.0848669192 3.0723115588 3.0597561985 3.0597561985 3.0597561985 3.0597561985 3.0723115588 3.0848669192 
3.0974222795 3.1099776398 3.1225330001 3.1350883604 3.1350883604 3.1476437207 3.1476437207 3.160199081 3.160199081 
3.160199081 3.1476437207 3.1350883604 3.1225330001 3.1099776398 3.0974222795 3.0974222795 3.0848669192 3.0848669192 
3.0848669192 3.0848669192 3.0848669192 3.0848669192 3.0848669192 3.0848669192 3.0723115588 3.0597561985 3.0597561985 
3.0597561985 3.0597561985 3.0597561985 3.0723115588 3.0848669192 3.0974222795 3.1099776398 3.1099776398 3.1225330001 
3.1350883604 3.1476437207 3.160199081 3.160199081 3.1476437207 3.1350883604 3.1350883604 3.1225330001 3.1099776398 
3.0974222795 3.0848669192 3.0848669192 3.0848669192 3.0848669192 3.0848669192 3.0848669192 3.0848669192 3.0848669192 
3.0848669192 3.0723115588 3.0597561985 3.0597561985 3.0597561985 3.0597561985 3.0723115588 3.0723115588 3.0848669192 
3.0974222795 3.1099776398 3.1225330001 3.1350883604 3.1476437207 3.160199081 3.160199081 3.160199081 3.1476437207 
3.1350883604 3.1225330001 3.1099776398 3.0974222795 3.0848669192 3.0723115588 3.0723115588 3.0723115588 3.0848669192 
3.0848669192 3.0848669192 3.0848669192 3.0723115588 3.0597561985 3.0597561985 3.0723115588 3.0848669192 3.0974222795 
3.1099776398 3.1225330001 3.1225330001 3.1350883604 3.1476437207 3.1476437207 3.160199081 3.160199081 3.1476437207 
3.1350883604 3.1225330001 3.1099776398 3.0974222795 3.0848669192 3.0723115588 3.0723115588 3.0723115588 3.0723115588 
3.0848669192 3.0848669192 3.0848669192 3.0723115588 3.0597561985 3.0597561985 3.0597561985 3.0723115588 3.0848669192 
3.0974222795 3.1099776398 3.1225330001 3.1350883604 3.1350883604 3.1476437207 3.160199081 3.160199081 3.160199081 
3.1476437207 3.1476437207 3.1350883604 3.1225330001 3.1099776398 3.0974222795 3.0848669192 3.0723115588 3.0723115588 
3.0723115588 3.0848669192 3.0848669192 3.0848669192 3.0723115588 3.0597561985 3.0597561985 3.0597561985 3.0723115588 
3.0848669192 3.0974222795 3.1099776398 3.1225330001 3.1350883604 3.1476437207 3.1476437207 3.160199081 3.1727544413 
3.1727544413 3.1727544413 3.1727544413 3.1727544413 3.1727544413 3.160199081 3.160199081 3.1476437207 3.1350883604 
3.1225330001 3.1099776398 3.0974222795 3.0974222795 3.0848669192 3.0723115588 3.0723115588 3.0723115588 3.0723115588 
3.0723115588 3.0723115588 3.0848669192 3.0848669192 3.0848669192 3.0723115588 3.0597561985 3.0472008382 3.0472008382 
3.0472008382 3.0472008382 3.0472008382 3.0597561985 3.0723115588 3.0848669192 3.0974222795 3.1099776398 3.1225330001 
3.1350883604 3.1476437207 3.160199081 3.160199081 3.1727544413 3.1727544413 3.1727544413 3.160199081 3.1476437207 
3.1350883604 3.1225330001 3.1099776398 3.1099776398 3.0974222795 3.0848669192 3.0723115588 3.0723115588 3.0723115588 
3.0723115588 3.0723115588 3.0723115588 3.0723115588 3.0723115588 3.0848669192 3.0848669192 3.0848669192 3.0723115588 
3.0723115588 3.0597561985 3.0472008382 3.0472008382 3.0472008382 3.0472008382 3.0597561985 3.0597561985 3.0723115588 
3.0848669192 3.0974222795 3.1099776398 3.1225330001 3.1225330001 3.1350883604 3.1476437207 3.160199081 3.1727544413 
3.1727544413 3.1727544413 3.160199081 3.1476437207 3.1350883604 3.1225330001 3.1099776398 3.0974222795 3.0848669192 
3.0723115588 3.0723115588 3.0723115588 3.0723115588 3.0723115588 3.0723115588 3.0723115588 3.0723115588 3.0723115588 
3.0723115588 3.0723115588 3.0848669192 3.0848669192 3.0848669192 3.0848669192 3.0723115588 3.0597561985 3.0472008382 
3.0472008382 3.0597561985 3.0723115588 3.0723115588 3.0848669192 3.0974222795 3.1099776398 3.1099776398 3.1225330001 
3.1350883604 3.1350883604 3.1476437207 3.1476437207 3.160199081 3.160199081 3.1727544413 3.1727544413 3.1727544413 
3.160199081 3.1476437207 3.1350883604 3.1225330001 3.1099776398 3.0974222795 3.0848669192 3.0723115588 3.0723115588 
3.0723115588 3.0723115588 3.0723115588 3.0723115588 3.0723115588 3.0723115588 3.0723115588 3.0723115588 3.0723115588 
3.0723115588 3.0723115588 3.0723115588 3.0723115588 3.0723115588 3.0723115588 3.0723115588 3.0723115588 3.0723115588 
3.0723115588 3.0723115588 3.0723115588 3.0848669192 3.0848669192 3.0848669192 3.0723115588 3.0597561985 3.0472008382 
3.0472008382 3.0346454779 3.0346454779 3.0346454779 3.0472008382 3.0597561985 3.0723115588 3.0848669192 3.0974222795 
3.1099776398 3.1225330001 3.1350883604 3.1476437207 3.160199081 3.1727544413 2.9467579558 2.9467579558 2.9593133161 
2.9593133161 2.9718686764 2.9718686764 2.9844240367 2.9844240367 2.996979397 2.996979397 3.0095347573 3.0095347573 
3.0220901176 3.0220901176 3.0346454779 3.0346454779 3.0472008382 3.0472008382 3.0597561985 3.0597561985 3.0723115588 
3.0723115588 3.0848669192 3.0848669192 3.0974222795 3.0974222795 3.1099776398 3.1099776398 3.1225330001 3.1225330001 
3.1350883604 3.1350883604 3.1476437207 3.1476437207 3.160199081 3.160199081 3.1727544413 3.1727544413 2.9467579558 
2.9593133161 2.9718686764 2.9844240367 2.996979397 3.0095347573 3.0220901176 3.0346454779 3.0472008382 3.0597561985 
3.0723115588 3.0848669192 3.0974222795 3.1099776398 3.1225330001 3.1350883604 3.1476437207 3.160199081 3.1727544413 
2.9467579558 2.9593133161 2.9718686764 2.9844240367 2.996979397 3.0095347573 3.0220901176 3.0346454779 3.0472008382 
3.0597561985 3.0723115588 3.0848669192 3.0974222795 3.1099776398 3.1225330001 3.1350883604 3.1476437207 3.160199081 
3.1727544413 2.9467579558 2.9593133161 2.9718686764 2.9844240367 2.996979397 3.0095347573 3.0220901176 3.0346454779 
3.0472008382 3.0597561985 3.0723115588 3.0848669192 3.0974222795 3.1099776398 3.1225330001 3.1350883604 3.1476437207 
3.160199081 3.1727544413 2.9467579558 2.9593133161 2.9718686764 2.9844240367 2.996979397 3.0095347573 3.0220901176 
3.0346454779 3.0472008382 3.0597561985 3.0723115588 3.0848669192 3.0974222795 3.1099776398 3.1225330001 3.1350883604 