# vtk DataFile Version 4.2
vtk output
ASCII
DATASET POLYDATA
POINTS 8799 float
1476.67 -2567.11 0 1479.89 -2568.37 0 1516.89 -2581.22 0 
1549.23 -2567.11 0 1433.14 -2550.11 0 1442.89 -2553.92 0 
1553.89 -2565.08 0 1588.2 -2550.11 0 1389.6 -2533.11 0 
1405.89 -2539.47 0 1590.89 -2548.93 0 1627.16 -2533.1 0 
1346.06 -2516.11 0 1368.89 -2525.02 0 1627.9 -2532.78 0 
1664.9 -2516.64 0 1666.12 -2516.1 0 1302.53 -2499.11 0 
1331.89 -2510.58 0 1701.9 -2500.49 0 1705.08 -2499.1 0 
1258.99 -2482.11 0 1294.89 -2496.13 0 1738.9 -2484.34 0 
1744.05 -2482.1 0 1233.25 -2465.11 0 1257.89 -2481.67 0 
1775.9 -2468.2 0 1783.01 -2465.1 0 1211.64 -2448.11 0 
1220.89 -2455.38 0 1812.9 -2452.05 0 1821.97 -2448.09 0 
1190.04 -2431.11 0 1849.91 -2435.91 0 1860.94 -2431.09 0 
1168.43 -2414.11 0 1183.89 -2426.28 0 1886.91 -2419.76 0 
1900.45 -2414.09 0 1146.82 -2397.11 0 1146.89 -2397.17 0 
1923.91 -2403.88 0 1960.91 -2397.82 0 1967.81 -2397.09 0 
-925.166 -2389.73 0 -938.964 -2380.17 0 -888.165 -2390.57 0 
-851.164 -2391.41 0 -814.163 -2392.25 0 -777.162 -2393.09 0 
-740.16 -2386.45 0 -721.34 -2380.16 0 1125.21 -2380.11 0 
1997.91 -2393.89 0 2010.96 -2380.09 0 -955.036 -2363.16 0 
-703.159 -2374.09 0 -670.448 -2363.16 0 1103.6 -2363.11 0 
1109.89 -2368.06 0 2021.08 -2363.08 0 -962.164 -2354.67 0 
-969.295 -2346.16 0 -666.157 -2361.72 0 -629.155 -2349.36 0 
-619.556 -2346.15 0 1081.99 -2346.11 0 2026.66 -2346.08 0 
-983.554 -2329.16 0 -592.153 -2337 0 -568.664 -2329.15 0 
1060.38 -2329.11 0 1072.89 -2338.95 0 2031.69 -2329.08 0 
-997.812 -2312.16 0 -555.152 -2324.64 0 -518.15 -2312.28 0 
-517.772 -2312.15 0 1038.78 -2312.11 0 2034.92 -2318.15 0 
2036.72 -2312.08 0 -999.163 -2310.55 0 -1012.07 -2295.16 0 
-481.148 -2299.91 0 -466.88 -2295.15 0 1017.17 -2295.11 0 
1035.89 -2309.84 0 2045.29 -2295.08 0 -1026.33 -2278.16 0 
-444.147 -2287.55 0 -415.988 -2278.15 0 996.317 -2278.11 0 
998.893 -2280.73 0 2056.28 -2278.08 0 -1036.16 -2266.44 0 
-1040.59 -2261.16 0 -407.145 -2275.19 0 -370.143 -2262.83 0 
-365.097 -2261.14 0 980.069 -2261.11 0 2067.28 -2261.08 0 
-1054.85 -2244.16 0 -333.141 -2250.47 0 -314.204 -2244.14 0 
964.562 -2244.11 0 2071.92 -2253.89 0 2078.27 -2244.08 0 
-1069.34 -2227.16 0 -296.14 -2238.11 0 -263.312 -2227.14 0 
956.305 -2227.11 0 961.894 -2241.1 0 2089.27 -2227.07 0 
-1073.16 -2222.87 0 -1084.49 -2210.16 0 -259.138 -2225.74 0 
-222.136 -2213.38 0 -212.421 -2210.14 0 949.515 -2210.1 0 
2100.26 -2210.07 0 -1099.63 -2193.16 0 -185.135 -2203.72 0 
-148.133 -2194.18 0 -144.288 -2193.13 0 942.726 -2193.1 0 
2108.93 -2196.67 0 2111.25 -2193.07 0 -1110.16 -2181.35 0 
-1114.78 -2176.16 0 -111.132 -2189.13 0 -95.431 -2176.13 0 
935.937 -2176.1 0 2122.25 -2176.07 0 -1129.93 -2159.16 0 
-75.9887 -2159.13 0 929.147 -2159.1 0 2133.24 -2159.07 0 
-1145.08 -2142.16 0 -74.1289 -2157.53 0 -64.1011 -2142.13 0 
922.358 -2142.1 0 924.899 -2148.46 0 2144.23 -2142.07 0 
-1147.16 -2139.82 0 -1160.22 -2125.16 0 -54.9124 -2125.13 0 
915.569 -2125.1 0 2145.93 -2139.44 0 2155.23 -2125.07 0 
-1175.37 -2108.16 0 -44.8298 -2108.13 0 908.779 -2108.1 0 
2166.22 -2108.07 0 -1184.16 -2098.3 0 -1190.52 -2091.16 0 
-37.1242 -2095.13 0 -34.7472 -2091.12 0 901.99 -2091.1 0 
2177.22 -2091.06 0 -1205.67 -2074.15 0 -24.6646 -2074.12 0 
896.988 -2074.1 0 2182.94 -2082.22 0 2188.21 -2074.06 0 
-1220.81 -2057.15 0 -14.582 -2057.12 0 893.568 -2057.1 0 
2199.2 -2057.06 0 -1221.15 -2056.77 0 -1235.96 -2040.15 0 
-4.4993 -2040.12 0 890.415 -2040.1 0 2210.2 -2040.06 0 
-1251.11 -2023.15 0 -0.119566 -2032.73 0 5.58331 -2023.12 0 
887.262 -2023.09 0 887.905 -2026.56 0 2219.94 -2025 0 
2221.19 -2023.06 0 -1258.15 -2015.25 0 -1266.26 -2006.15 0 
15.666 -2006.12 0 884.109 -2006.09 0 2232.19 -2006.06 0 
-1281.4 -1989.15 0 25.7486 -1989.12 0 880.957 -1989.09 0 
2243.18 -1989.06 0 -1295.15 -1973.72 0 -1296.55 -1972.15 0 
35.8312 -1972.11 0 877.804 -1972.09 0 2254.17 -1972.06 0 
-1311.7 -1955.15 0 36.8851 -1970.34 0 45.9138 -1955.11 0 
874.651 -1955.09 0 2256.95 -1967.77 0 2265.17 -1955.05 0 
-1326.84 -1938.15 0 55.9964 -1938.11 0 871.54 -1938.09 0 
2276.16 -1938.05 0 -1332.15 -1932.2 0 -1341.99 -1921.15 0 
66.0791 -1921.11 0 865.473 -1921.09 0 2287.16 -1921.05 0 
-1357.14 -1904.15 0 73.8898 -1907.94 0 76.1617 -1904.11 0 
861.138 -1904.09 0 2293.95 -1910.55 0 2298.15 -1904.05 0 
-1369.15 -1890.67 0 -1372.29 -1887.15 0 86.2443 -1887.11 0 
856.471 -1887.09 0 2309.14 -1887.05 0 -1387.43 -1870.15 0 
96.327 -1870.11 0 849.296 -1870.09 0 850.913 -1873.41 0 
2320.14 -1870.05 0 -1402.58 -1853.15 0 106.41 -1853.11 0 
842.357 -1853.09 0 2330.95 -1853.32 0 2331.06 -1853.05 0 
-1406.15 -1849.15 0 -1417.73 -1836.15 0 110.894 -1845.54 0 
116.492 -1836.1 0 835.751 -1836.09 0 2333.32 -1836.04 0 
-1432.88 -1819.15 0 126.575 -1819.1 0 828.845 -1819.08 0 
2333.9 -1819.04 0 -1443.15 -1807.62 0 -1448.02 -1802.15 0 
136.657 -1802.1 0 821.938 -1802.08 0 2334.47 -1802.04 0 
-1463.17 -1785.14 0 146.74 -1785.1 0 815.032 -1785.08 0 
2335.05 -1785.04 0 -1478.32 -1768.14 0 147.899 -1783.15 0 
156.823 -1768.1 0 808.125 -1768.08 0 813.917 -1782.34 0 
2335.62 -1768.04 0 -1480.14 -1766.09 0 -1493.47 -1751.14 0 
166.905 -1751.1 0 801.219 -1751.08 0 2336.2 -1751.04 0 
-1508.61 -1734.14 0 176.988 -1734.1 0 794.312 -1734.08 0 
2336.77 -1734.04 0 -1517.14 -1724.57 0 -1523.76 -1717.14 0 
184.904 -1720.75 0 187.071 -1717.1 0 787.406 -1717.08 0 
2337.35 -1717.04 0 -1538.5 -1700.14 0 197.153 -1700.09 0 
780.499 -1700.08 0 2337.92 -1700.04 0 -1548.53 -1683.14 0 
207.236 -1683.09 0 773.593 -1683.08 0 776.922 -1691.27 0 
2338.5 -1683.04 0 -1554.14 -1671.1 0 -1556.06 -1666.14 0 
217.319 -1666.09 0 766.686 -1666.08 0 2339.07 -1666.03 0 
-1562.62 -1649.14 0 221.908 -1657.64 0 226.36 -1649.09 0 
759.799 -1649.08 0 2339.65 -1649.03 0 -1569.18 -1632.14 0 
234.973 -1632.09 0 752.936 -1632.08 0 2341.13 -1632.03 0 
-1575.74 -1615.14 0 243.586 -1615.09 0 746.083 -1615.07 0 
2343.34 -1615.03 0 -1582.3 -1598.14 0 252.199 -1598.09 0 
739.327 -1598.07 0 739.926 -1599.8 0 2345.59 -1598.03 0 
-1588.86 -1581.14 0 258.914 -1584.83 0 260.464 -1581.09 0 
733.726 -1581.07 0 1289.26 -1581.06 0 1294.94 -1585.01 0 
1331.94 -1589.93 0 1368.94 -1589.63 0 1405.94 -1589.34 0 
1442.95 -1589.05 0 1479.95 -1588.76 0 1516.95 -1588.47 0 
1553.95 -1588.17 0 1590.95 -1587.88 0 1612.64 -1581.05 0 
2347.83 -1581.03 0 -1591.14 -1575.23 0 -1595.42 -1564.14 0 
266.756 -1564.08 0 728.613 -1564.07 0 1260.99 -1564.06 0 
1627.95 -1573.23 0 1635.15 -1564.05 0 2350.08 -1564.03 0 
-1601.98 -1547.13 0 272.048 -1547.08 0 723.927 -1547.07 0 
1242.66 -1547.06 0 1257.94 -1562.45 0 1648.47 -1547.05 0 
2352.33 -1547.03 0 -1608.39 -1530.13 0 276.559 -1530.08 0 
719.616 -1530.07 0 1225.99 -1530.06 0 1661.79 -1530.05 0 
2354.58 -1530.03 0 -1613 -1513.13 0 280.452 -1513.08 0 
715.837 -1513.07 0 1208.91 -1513.06 0 1220.94 -1525.18 0 
1664.96 -1526 0 1676.27 -1513.04 0 2356.83 -1513.03 0 
-1616.91 -1496.13 0 283.845 -1496.08 0 712.451 -1496.07 0 
1192.04 -1496.06 0 1690.75 -1496.04 0 2359.08 -1496.02 0 
-1620.81 -1479.13 0 286.828 -1479.08 0 709.064 -1479.07 0 
1175.16 -1479.06 0 1183.94 -1487.9 0 1701.96 -1482.54 0 
1705.09 -1479.04 0 2361.33 -1479.02 0 -1624.72 -1462.13 0 
289.472 -1462.08 0 705.677 -1462.07 0 1158.29 -1462.05 0 
1720.28 -1462.04 0 2363.58 -1462.02 0 -1628.13 -1447.27 0 
-1628.62 -1445.13 0 291.697 -1445.08 0 702.29 -1445.07 0 
702.934 -1448.3 0 1141.41 -1445.05 0 1146.95 -1450.63 0 
1735.48 -1445.04 0 2365.83 -1445.02 0 -1632.53 -1428.13 0 
293.775 -1428.08 0 698.903 -1428.07 0 1124.54 -1428.05 0 
1738.96 -1441.14 0 1750.67 -1428.04 0 2367.98 -1428.74 0 
2368.08 -1428.02 0 -1636.43 -1411.13 0 295.854 -1411.07 0 
695.516 -1411.06 0 1107.66 -1411.05 0 1109.95 -1413.35 0 
1765.87 -1411.04 0 2370.32 -1411.02 0 -1640.34 -1394.13 0 
295.925 -1410.49 0 297.933 -1394.07 0 692.129 -1394.06 0 
1090.44 -1394.05 0 1775.97 -1399.74 0 1779.36 -1394.03 0 
2372.57 -1394.02 0 -1644.24 -1377.13 0 300.011 -1377.07 0 
688.742 -1377.06 0 1072.57 -1377.05 0 1072.95 -1377.4 0 
1788.15 -1377.03 0 2374.82 -1377.02 0 -1648.15 -1360.12 0 
302.09 -1360.07 0 685.355 -1360.06 0 1054.2 -1360.05 0 
1794.13 -1360.03 0 2377.07 -1360.02 0 -1652.05 -1343.12 0 
304.169 -1343.07 0 681.968 -1343.06 0 1035.82 -1343.05 0 
1035.95 -1343.17 0 1799.5 -1343.03 0 2379.32 -1343.01 0 
-1655.96 -1326.12 0 306.286 -1326.07 0 678.581 -1326.06 0 
1017.45 -1326.05 0 1804.87 -1326.03 0 2382.01 -1326.01 0 
-1659.86 -1309.12 0 308.56 -1309.07 0 673.495 -1309.06 0 
999.072 -1309.05 0 1810.24 -1309.03 0 2386.44 -1309.01 0 
-1663.77 -1292.12 0 310.834 -1292.07 0 665.657 -1292.06 0 
665.942 -1292.68 0 987.021 -1292.05 0 998.95 -1308.94 0 
1812.97 -1300.36 0 1815.6 -1292.03 0 2390.02 -1292.01 0 
-1665.12 -1286.23 0 -1667.67 -1275.12 0 313.108 -1275.07 0 
657.82 -1275.06 0 974.963 -1275.05 0 1820.97 -1275.03 0 
2392.96 -1275.01 0 -1671.58 -1258.12 0 315.382 -1258.07 0 
649.983 -1258.06 0 962.855 -1258.05 0 1826.52 -1258.02 0 
2395.43 -1258.01 0 -1675.48 -1241.12 0 317.656 -1241.06 0 
642.146 -1241.06 0 952.66 -1241.05 0 961.952 -1256.78 0 
1834.51 -1241.02 0 2398.29 -1241.01 0 -1679.39 -1224.12 0 
319.93 -1224.06 0 634.309 -1224.05 0 942.622 -1224.05 0 
1842.53 -1224.02 0 2402.55 -1224.01 0 -1683.29 -1207.12 0 
322.204 -1207.06 0 626.882 -1207.05 0 628.946 -1212.42 0 
932.583 -1207.05 0 1849.98 -1208.25 0 1850.56 -1207.02 0 
2404.99 -1212.18 0 2406.01 -1207.01 0 -1687.2 -1190.12 0 
324.478 -1190.06 0 621.546 -1190.05 0 922.648 -1190.05 0 
924.955 -1194.13 0 1858.58 -1190.02 0 2407.59 -1190 0 
-1691.1 -1173.11 0 326.752 -1173.06 0 618.146 -1173.05 0 
913.633 -1173.04 0 1866.61 -1173.02 0 2409.15 -1173 0 
-1695.01 -1156.11 0 329.026 -1156.06 0 614.746 -1156.05 0 
905.515 -1156.04 0 1874.63 -1156.02 0 2410.02 -1156 0 
-1698.91 -1139.11 0 331.3 -1139.06 0 611.346 -1139.05 0 
898.559 -1139.04 0 1882.66 -1139.02 0 2410.78 -1139 0 
-1702.11 -1125.19 0 -1702.82 -1122.11 0 332.943 -1126.77 0 
333.452 -1122.06 0 607.946 -1122.05 0 891.604 -1122.04 0 
1886.98 -1129.85 0 1890.29 -1122.01 0 2411.53 -1122 0 
[...]
POINT_DATA 8799
SCALARS Pressure double
LOOKUP_TABLE default
3.0974222795 3.0974222795 3.0974222795 3.0974222795 3.0974222795 3.0974222795 3.0974222795 3.0974222795 3.0974222795 
3.0974222795 3.0974222795 3.0974222795 3.0974222795 3.0974222795 3.0974222795 3.0974222795 3.0974222795 3.0974222795 
3.0974222795 3.0974222795 3.0974222795 3.0974222795 3.0974222795 3.0974222795 3.0974222795 3.0974222795 3.0974222795 
3.0974222795 3.0974222795 3.0974222795 3.0974222795 3.0974222795 3.0974222795 3.0974222795 3.0974222795 3.0974222795 
3.0974222795 3.0974222795 3.0974222795 3.0974222795 3.0974222795 3.0974222795 3.0974222795 3.0974222795 3.0974222795 
3.0848669192 3.0848669192 3.0848669192 3.0848669192 3.0848669192 3.0848669192 3.0848669192 3.0848669192 3.0974222795 
3.0974222795 3.0974222795 3.0848669192 3.0848669192 3.0848669192 3.0974222795 3.0974222795 3.0974222795 3.0848669192 
3.0848669192 3.0848669192 3.0848669192 3.0848669192 3.0974222795 3.0974222795 3.0848669192 3.0848669192 3.0848669192 
3.0974222795 3.0974222795 3.0974222795 3.0848669192 3.0848669192 3.0848669192 3.0848669192 3.0974222795 3.0974222795 
3.0974222795 3.0848669192 3.0848669192 3.0848669192 3.0848669192 3.0974222795 3.0974222795 3.0974222795 3.0848669192 
3.0848669192 3.0848669192 3.0974222795 3.0974222795 3.0974222795 3.0848669192 3.0848669192 3.0848669192 3.0848669192 
3.0848669192 3.0974222795 3.0974222795 3.0848669192 3.0848669192 3.0848669192 3.0974222795 3.0974222795 3.0974222795 
3.0848669192 3.0848669192 3.0848669192 3.0974222795 3.0974222795 3.0974222795 3.0848669192 3.0848669192 3.0848669192 
3.0848669192 3.0848669192 3.0974222795 3.0974222795 3.0848669192 3.0848669192 3.0848669192 3.0848669192 3.0974222795 
3.0974222795 3.0974222795 3.0848669192 3.0848669192 3.0848669192 3.0848669192 3.0974222795 3.0974222795 3.0848669192 
3.0848669192 3.0974222795 3.0974222795 3.0848669192 3.0848669192 3.0848669192 3.0974222795 3.0974222795 3.0974222795 
3.0848669192 3.0848669192 3.0848669192 3.0974222795 3.0974222795 3.0974222795 3.0848669192 3.0848669192 3.0974222795 
3.0974222795 3.0848669192 3.0848669192 3.0848669192 3.0848669192 3.0974222795 3.0974222795 3.0848669192 3.0848669192 
3.0974222795 3.0974222795 3.0974222795 3.0848669192 3.0848669192 3.0974222795 3.0974222795 3.0848669192 3.0848669192 
3.0848669192 3.0974222795 3.0974222795 3.0848669192 3.0848669192 3.0848669192 3.0974222795 3.0974222795 3.0974222795 
3.0974222795 3.0848669192 3.0848669192 3.0848669192 3.0974222795 3.0974222795 3.0848669192 3.0848669192 3.0974222795 
3.0974222795 3.0848669192 3.0848669192 3.0848669192 3.0974222795 3.0974222795 3.0848669192 3.0848669192 3.0848669192 
3.0974222795 3.0974222795 3.0974222795 3.0848669192 3.0848669192 3.0974222795 3.0974222795 3.0848669192 3.0848669192 
3.0848669192 3.0974222795 3.0974222795 3.0848669192 3.0848669192 3.0848669192 3.0974222795 3.0974222795 3.0974222795 
3.0848669192 3.0848669192 3.0848669192 3.0974222795 3.0974222795 3.0848669192 3.0848669192 3.0974222795 3.0974222795 
3.0974222795 3.0848669192 3.0848669192 3.0974222795 3.0974222795 3.0974222795 3.0848669192 3.0848669192 3.0848669192 
3.0848669192 3.0974222795 3.0974222795 3.0848669192 3.0848669192 3.0974222795 3.0974222795 3.0848669192 3.0848669192 
3.0848669192 3.0974222795 3.0974222795 3.0848669192 3.0848669192 3.0974222795 3.0974222795 3.0848669192 3.0848669192 
3.0848669192 3.0974222795 3.0974222795 3.0974222795 3.0848669192 3.0848669192 3.0848669192 3.0974222795 3.0974222795 
3.0848669192 3.0848669192 3.0974222795 3.0974222795 3.0848669192 3.0848669192 3.0848669192 3.0848669192 3.0974222795 
3.0974222795 3.0848669192 3.0848669192 3.0974222795 3.0974222795 3.0848669192 3.0848669192 3.0974222795 3.0974222795 
3.0974222795 3.0848669192 3.0848669192 3.0848669192 3.0974222795 3.0974222795 3.0848669192 3.0848669192 3.0848669192 
3.0974222795 3.0974222795 3.0848669192 3.0848669192 3.0974222795 3.0974222795 3.0848669192 3.0848669192 3.0974222795 
3.0974222795 3.0848669192 3.0848669192 3.0974222795 3.0974222795 3.0974222795 3.0848669192 3.0848669192 3.0848669192 
3.0974222795 3.1099776398 3.1099776398 3.1099776398 3.1099776398 3.1099776398 3.1099776398 3.1099776398 3.1099776398 
3.1099776398 3.1099776398 3.1099776398 3.0974222795 3.0848669192 3.0848669192 3.0848669192 3.0974222795 3.1099776398 
3.1099776398 3.1099776398 3.0974222795 3.0848669192 3.0848669192 3.0974222795 3.1099776398 3.1099776398 3.1099776398 
3.0974222795 3.0848669192 3.0848669192 3.0974222795 3.1099776398 3.1099776398 3.0974222795 3.0848669192 3.0848669192 
3.0974222795 3.1099776398 3.1099776398 3.1099776398 3.1099776398 3.0974222795 3.0848669192 3.0848669192 3.0974222795 
3.1099776398 3.1099776398 3.0974222795 3.0848669192 3.0848669192 3.0974222795 3.1099776398 3.1099776398 3.1099776398 
3.1099776398 3.0974222795 3.0848669192 3.0848669192 3.0974222795 3.1099776398 3.1099776398 3.0974222795 3.0848669192 
3.0848669192 3.0848669192 3.0974222795 3.0974222795 3.1099776398 3.1099776398 3.1099776398 3.0974222795 3.0848669192 
3.0848669192 3.0974222795 3.1099776398 3.1099776398 3.1099776398 3.0974222795 3.0974222795 3.0848669192 3.0848669192 
3.0974222795 3.1099776398 3.1099776398 3.1099776398 3.0974222795 3.0848669192 3.0848669192 3.0848669192 3.0974222795 
3.1099776398 3.1099776398 3.1099776398 3.0974222795 3.0848669192 3.0848669192 3.0974222795 3.1099776398 3.1099776398 
3.1099776398 3.0974222795 3.0848669192 3.0848669192 3.0974222795 3.1099776398 3.1099776398 3.0974222795 3.0848669192 
3.0848669192 3.0974222795 3.1099776398 3.1099776398 3.1099776398 3.0974222795 3.0848669192 3.0848669192 3.0974222795 
3.1099776398 3.1099776398 3.0974222795 3.0848669192 3.0848669192 3.0974222795 3.1099776398 3.1099776398 3.0974222795 
3.0848669192 3.0848669192 3.0974222795 3.0974222795 3.1099776398 3.1099776398 3.1099776398 3.1099776398 3.0974222795 
3.0848669192 3.0848669192 3.0848669192 3.0974222795 3.1099776398 3.1099776398 3.0974222795 3.0848669192 3.0848669192 
3.0974222795 3.1099776398 3.1099776398 3.0974222795 3.0848669192 3.0848669192 3.0974222795 3.1099776398 3.1099776398 
3.1099776398 3.0974222795 3.0848669192 3.0848669192 3.0974222795 3.1099776398 3.1099776398 3.0974222795 3.0848669192 
3.0848669192 3.0974222795 3.0974222795 3.1099776398 3.1099776398 3.1099776398 3.0974222795 3.0974222795 3.0848669192 
3.0848669192 3.0974222795 3.1099776398 3.1099776398 3.1099776398 3.0974222795 3.0848669192 3.0848669192 3.0974222795 
3.1099776398 3.1099776398 3.0974222795 3.0848669192 3.0848669192 3.0974222795 3.1099776398 3.1099776398 3.0974222795 
3.0848669192 3.0848669192 3.0974222795 3.1099776398 3.1099776398 3.0974222795 3.0848669192 3.0848669192 3.0848669192 
3.0848669192 3.0974222795 3.1099776398 3.1099776398 3.1099776398 3.0974222795 3.0848669192 3.0848669192 3.0974222795 
3.1099776398 3.1099776398 3.1099776398 3.0974222795 3.0848669192 3.0848669192 3.0848669192 3.0974222795 3.1099776398 
3.1099776398 3.0974222795 3.0848669192 3.0848669192 3.0974222795 3.1099776398 3.1225330001 3.1225330001 3.1225330001 
3.1225330001 3.1225330001 3.1225330001 3.1099776398 3.0974222795 3.0848669192 3.0848669192 3.0848669192 3.0848669192 
3.0848669192 3.0723115588 3.0723115588 3.0723115588 3.0723115588 3.0723115588 3.0723115588 3.0848669192 3.0974222795 
3.1099776398 3.1225330001 3.1225330001 3.1225330001 3.1225330001 3.1099776398 3.0974222795 3.0848669192 3.0848669192 
3.0848669192 3.0848669192 3.0848669192 3.0848669192 3.0848669192 3.0848669192 3.0723115588 3.0723115588 3.0723115588 
3.0723115588 3.0723115588 3.0848669192 3.0974222795 3.0974222795 3.1099776398 3.1225330001 3.1225330001 3.1225330001 
3.1225330001 3.1099776398 3.0974222795 3.0848669192 3.0848669192 3.0848669192 3.0848669192 3.0848669192 3.0848669192 
3.0723115588 3.0723115588 3.0723115588 3.0723115588 3.0848669192 3.0974222795 3.1099776398 3.1099776398 3.1225330001 
3.1225330001 3.1099776398 3.0974222795 3.0848669192 3.0848669192 3.0848669192 3.0848669192 3.0723115588 3.0723115588 
3.0723115588 3.0848669192 3.0974222795 3.1099776398 3.1225330001 3.1225330001 3.1225330001 3.1225330001 3.1099776398 
3.1099776398 3.0974222795 3.0848669192 3.0848669192 3.0848669192 3.0848669192 3.0848669192 3.0723115588 3.0723115588 
3.0723115588 3.0723115588 3.0848669192 3.0974222795 3.1099776398 3.1225330001 3.1225330001 3.1099776398 3.0974222795 
3.0848669192 3.0848669192 3.0848669192 3.0848669192 3.0848669192 3.0723115588 3.0723115588 3.0723115588 3.0848669192 
3.0974222795 3.1099776398 3.1099776398 3.1225330001 3.1225330001 3.1225330001 3.1225330001 3.1099776398 3.0974222795 
3.0848669192 3.0848669192 3.0848669192 3.0848669192 3.0848669192 3.0723115588 3.0723115588 3.0723115588 3.0848669192 
3.0974222795 3.1099776398 3.1225330001 3.1225330001 3.1225330001 3.1099776398 3.0974222795 3.0848669192 3.0848669192 
3.0848669192 3.0848669192 3.0723115588 3.0723115588 3.0723115588 3.0848669192 3.0974222795 3.1099776398 3.1225330001 
3.1225330001 3.1225330001 3.1225330001 3.1099776398 3.0974222795 3.0848669192 3.0848669192 3.0848669192 3.0848669192 
3.0723115588 3.0723115588 3.0723115588 3.0848669192 3.0974222795 3.0974222795 3.1099776398 3.1099776398 3.1225330001 
3.1225330001 3.1099776398 3.0974222795 3.0848669192 3.0848669192 3.0848669192 3.0848669192 3.0723115588 3.0723115588 
3.0723115588 3.0848669192 3.0974222795 3.1099776398 3.1225330001 3.1225330001 3.1225330001 3.1099776398 3.1099776398 
3.0974222795 3.0848669192 3.0848669192 3.0848669192 3.0848669192 3.0848669192 3.0723115588 3.0723115588 3.0848669192 
3.0974222795 3.1099776398 3.1225330001 3.1225330001 3.1099776398 3.0974222795 3.0848669192 3.0848669192 3.0848669192 
3.0848669192 3.0723115588 3.0723115588 3.0848669192 3.0974222795 3.1099776398 3.1225330001 3.1225330001 3.1225330001 
3.1225330001 3.1099776398 3.0974222795 3.0848669192 3.0848669192 3.0848669192 3.0848669192 3.0723115588 3.0723115588 
3.0723115588 3.0723115588 3.0848669192 3.0974222795 3.1099776398 3.1099776398 3.1225330001 3.1225330001 3.1099776398 
3.0974222795 3.0848669192 3.0848669192 3.0848669192 3.0848669192 3.0723115588 3.0723115588 3.0848669192 3.0974222795 
3.1099776398 3.1225330001 3.1225330001 3.1099776398 3.0974222795 3.0848669192 3.0848669192 3.0848669192 3.0723115588 
3.0723115588 3.0723115588 3.0848669192 3.0974222795 3.1099776398 3.1225330001 3.1225330001 3.1225330001 3.1099776398 
3.0974222795 3.0848669192 3.0848669192 3.0848669192 3.0723115588 3.0723115588 3.0848669192 3.0974222795 3.0974222795 
3.1099776398 3.1225330001 3.1225330001 3.1225330001 3.1099776398 3.0974222795 3.0848669192 3.0848669192 3.0848669192 
3.0848669192 3.0723115588 3.0723115588 3.0723115588 3.0723115588 3.0848669192 3.0974222795 3.1099776398 3.1099776398 
3.1225330001 3.1225330001 3.1099776398 3.1099776398 3.0974222795 3.0848669192 3.0848669192 3.0848669192 3.0848669192 
3.0723115588 3.0723115588 3.0848669192 3.0974222795 3.1099776398 3.1225330001 3.1225330001 3.1225330001 3.1099776398 
3.0974222795 3.0974222795 3.0848669192 3.0848669192 3.0848669192 3.0723115588 3.0723115588 3.0848669192 3.0974222795 
3.1099776398 3.1225330001 3.1225330001 3.1099776398 3.0974222795 3.0848669192 3.0848669192 3.0848669192 3.0723115588 
3.0723115588 3.0848669192 3.0974222795 3.1099776398 3.1225330001 3.1225330001 3.1350883604 3.1350883604 3.1350883604 
3.1350883604 3.1225330001 3.1099776398 3.0974222795 3.0848669192 3.0848669192 3.0848669192 3.0848669192 3.0848669192 
3.0723115588 3.0723115588 3.0848669192 3.0974222795 3.1099776398 3.1099776398 3.1225330001 3.1350883604 3.1350883604 
3.1350883604 3.1350883604 3.1350883604 3.1350883604 3.1225330001 3.1225330001 3.1099776398 3.0974222795 3.0848669192 
3.0848669192 3.0848669192 3.0723115588 3.0723115588 3.0723115588 3.0723115588 3.0848669192 3.0974222795 3.1099776398 
3.1225330001 3.1350883604 3.1350883604 3.1225330001 3.1099776398 3.0974222795 3.0848669192 3.0848669192 3.0848669192 
3.0723115588 3.0723115588 3.0848669192 3.0974222795 3.1099776398 3.1225330001 3.1225330001 3.1350883604 3.1350883604 
3.1350883604 3.1350883604 3.1225330001 3.1099776398 3.0974222795 3.0848669192 3.0848669192 3.0848669192 3.0848669192 
3.0723115588 3.0723115588 3.0848669192 3.0974222795 3.0974222795 3.1099776398 3.1225330001 3.1350883604 3.1350883604 
3.1350883604 3.1225330001 3.1099776398 3.0974222795 3.0848669192 3.0848669192 3.0848669192 3.0848669192 3.0723115588 
3.0723115588 3.0848669192 3.0974222795 3.1099776398 3.1099776398 3.1225330001 3.1225330001 3.1350883604 3.1350883604 
3.1350883604 3.1225330001 3.1099776398 3.1099776398 3.0974222795 3.0848669192 3.0848669192 3.0848669192 3.0848669192 
3.0723115588 3.0597561985 3.0597561985 3.0597561985 3.0597561985 3.0597561985 3.0597561985 3.0723115588 3.0848669192 
3.0974222795 3.1099776398 3.1225330001 3.1350883604 3.1350883604 3.1350883604 3.1225330001 3.1099776398 3.0974222795 
3.0848669192 3.0848669192 3.0848669192 3.0848669192 3.0723115588 3.0597561985 3.0597561985 3.0597561985 3.0597561985 
3.0723115588 3.0848669192 3.0974222795 3.1099776398 3.1225330001 3.1350883604 3.1350883604 3.1350883604 3.1225330001 
3.1099776398 3.0974222795 3.0848669192 3.0848669192 3.0848669192 3.0848669192 3.0723115588 3.0597561985 3.0597561985 
3.0597561985 3.0723115588 3.0848669192 3.0974222795 3.1099776398 3.1225330001 3.1225330001 3.1350883604 3.1350883604 
3.1350883604 3.1225330001 3.1099776398 3.0974222795 3.0848669192 3.0848669192 3.0848669192 3.0848669192 3.0848669192 
3.0848669192 3.0848669192 3.0848669192 3.0848669192 3.0848669192 3.0848669192 3.0723115588 3.0597561985 3.0597561985 
3.0597561985 3.0597561985 3.0723115588 3.0723115588 3.0848669192 3.0974222795 3.1099776398 3.1225330001 3.1350883604 
3.1350883604 3.1350883604 3.1225330001 3.1099776398 3.0974222795 3.0848669192 3.0848669192 3.0848669192 3.0848669192 
3.0848669192 3.0848669192 3.0848669192 3.0848669192 3.0848669192 3.0848669192 3.0848669192 3.0848669192 3.0848669192 
3.0848669192 3.0848669192 3.0848669192 3.0723115588 3.0723115588 3.0597561985 3.0597561985 3.0723115588 3.0848669192 
3.0974222795 3.1099776398 3.1099776398 3.1225330001 3.1350883604 3.1350883604 3.1350883604 3.1225330001 3.1099776398 
3.0974222795 3.0974222795 3.0848669192 3.0848669192 3.0848669192 3.0848669192 3.0848669192 3.0848669192 3.0848669192 
3.0848669192 3.0848669192 3.0848669192 3.0848669192 3.0848669192 3.0848669192 3.0848669192 3.0848669192 3.0848669192 
3.0848669192 3.0848669192 3.0848669192 3.0723115588 3.0597561985 3.0597561985 3.0597561985 3.0597561985 3.0723115588 
3.0848669192 3.0974222795 3.0974222795 3.1099776398 3.1225330001 3.1225330001 3.1350883604 3.1350883604 3.1350883604 
3.1225330001 3.1225330001 3.1099776398 3.1099776398 3.0974222795 3.0848669192 3.0848669192 3.0848669192 3.0848669192 
3.0848669192 3.0848669192 3.0848669192 3.0848669192 3.0848669192 3.0848669192 3.0848669192 3.0848669192 3.0848669192 
3.0848669192 3.0848669192 3.0848669192 3.0848669192 3.0848669192 3.0848669192 3.0848669192 3.0848669192 3.0723115588 
3.0597561985 3.0597561985 3.0597561985 3.0723115588 3.0848669192 3.0974222795 3.1099776398 3.1225330001 3.1350883604 
3.1350883604 3.1225330001 3.1099776398 3.0974222795 3.0848669192 3.0848669192 3.0848669192 3.0848669192 3.0848669192 
3.0848669192 3.0848669192 3.0848669192 3.0848669192 3.0848669192 3.0848669192 3.0848669192 3.0848669192 3.0848669192 
3.0848669192 3.0848669192 3.0848669192 3.0848669192 3.0848669192 3.0848669192 3.0848669192 3.0848669192 3.0723115588 
3.0597561985 3.0597561985 3.0723115588 3.0848669192 3.0974222795 3.1099776398 3.1099776398 3.1225330001 3.1350883604 
3.1350883604 3.1350883604 3.1225330001 3.1099776398 3.0974222795 3.0848669192 3.0848669192 3.0848669192 3.0848669192 
3.0848669192 3.0848669192 3.0848669192 3.0848669192 3.0848669192 3.0848669192 3.0848669192 3.0848669192 3.0848669192 
3.0848669192 3.0848669192 3.0848669192 3.0848669192 3.0848669192 3.0848669192 3.0723115588 3.0597561985 3.0597561985 
3.0597561985 3.0723115588 3.0848669192 3.0974222795 3.1099776398 3.1225330001 3.1225330001 3.1350883604 3.1350883604 
3.1225330001 3.1099776398 3.0974222795 3.0848669192 3.0848669192 3.0848669192 3.0848669192 3.0848669192 3.0848669192 
3.0848669192 3.0848669192 3.0848669192 3.0848669192 3.0848669192 3.0848669192 3.0848669192 3.0848669192 3.0848669192 
3.0848669192 3.0723115588 3.0597561985 3.0597561985 3.0723115588 3.0848669192 3.0974222795 3.1099776398 3.1225330001 
3.1350883604 3.1350883604 3.1225330001 3.1099776398 3.0974222795 3.0848669192 3.0848669192 3.0848669192 3.0848669192 
3.0848669192 3.0848669192 3.0848669192 3.0848669192 3.0848669192 3.0848669192 3.0848669192 3.0848669192 3.0848669192 
3.0848669192 3.0723115588 3.0597561985 3.0597561985 3.0597561985 3.0723115588 3.0848669192 3.0974222795 3.1099776398 
3.1225330001 3.1225330001 3.1350883604 3.1350883604 3.1350883604 3.1350883604 3.1225330001 3.1099776398 3.0974222795 
3.0848669192 3.0848669192 3.0848669192 3.0848669192 3.0848669192 3.0848669192 3.0848669192 3.0848669192 3.0848669192 
3.0848669192 3.0848669192 3.0848669192 3.0848669192 3.0848669192 3.0848669192 3.0848669192 3.0848669192 3.0723115588 
3.0723115588 3.0597561985 3.0597561985 3.0723115588 3.0848669192 3.0848669192 3.0974222795 3.0974222795 3.1099776398 
3.1099776398 3.1225330001 3.1350883604 3.1350883604 3.1225330001 3.1099776398 3.0974222795 3.0848669192 3.0848669192 
3.0848669192 3.0848669192 3.0848669192 3.0848669192 3.0848669192 3.0848669192 3.0848669192 3.0848669192 3.0848669192 
3.0723115588 3.0597561985 3.0597561985 3.0723115588 3.0848669192 3.0974222795 3.1099776398 3.1225330001 3.1350883604 
3.1350883604 3.1350883604 3.1225330001 3.1099776398 3.0974222795 3.0848669192 3.0848669192 3.0848669192 3.0848669192 
3.0848669192 3.0848669192 3.0848669192 3.0848669192 3.0848669192 3.0723115588 3.0597561985 3.0472008382 3.0472008382 
3.0472008382 3.0472008382 3.0472008382 3.0597561985 3.0723115588 3.0848669192 3.0974222795 3.1099776398 3.1225330001 
3.1225330001 3.1350883604 3.1350883604 3.1225330001 3.1099776398 3.1099776398 3.0974222795 3.0848669192 3.0848669192 
3.0723115588 3.0723115588 3.0723115588 3.0723115588 3.0848669192 3.0848669192 3.0848669192 3.0848669192 3.0848669192 
3.0848669192 3.0848669192 3.0723115588 3.0597561985 3.0597561985 3.0472008382 3.0472008382 3.0472008382 3.0597561985 
3.0723115588 3.0848669192 3.0974222795 3.1099776398 3.1225330001 3.1350883604 3.1350883604 3.1350883604 3.1225330001 
3.1099776398 3.0974222795 3.0848669192 3.0723115588 3.0723115588 3.0723115588 3.0848669192 3.0848669192 3.0848669192 
3.0723115588 3.0597561985 3.0472008382 3.0472008382 3.0472008382 3.0472008382 3.0597561985 3.0723115588 3.0848669192 
3.0974222795 3.0974222795 3.1099776398 3.1099776398 3.1225330001 3.1350883604 3.1476437207 3.1476437207 3.1476437207 
3.1476437207 3.1350883604 3.1225330001 3.1099776398 3.0974222795 3.0848669192 3.0723115588 3.0723115588 3.0723115588 
3.0723115588 3.0723115588 3.0848669192 3.0848669192 3.0848669192 3.0848669192 3.0723115588 3.0597561985 3.0472008382 
3.0472008382 3.0597561985 3.0723115588 3.0848669192 3.0974222795 3.1099776398 3.1225330001 3.1350883604 3.1350883604 
3.1476437207 3.1476437207 3.1476437207 3.1350883604 3.1225330001 3.1099776398 3.0974222795 3.0848669192 3.0723115588 
3.0723115588 3.0723115588 3.0723115588 3.0848669192 3.0848669192 3.0848669192 3.0848669192 3.0848669192 3.0848669192 
3.0848669192 3.0848669192 3.0723115588 3.0597561985 3.0472008382 3.0472008382 3.0472008382 3.0472008382 3.0597561985 
3.0723115588 3.0848669192 3.0974222795 3.1099776398 3.1225330001 3.1225330001 3.1350883604 3.1476437207 3.1476437207 
3.1476437207 3.1476437207 3.1350883604 3.1225330001 3.1099776398 3.0974222795 3.0974222795 3.0848669192 3.0723115588 
3.0723115588 3.0848669192 3.0848669192 3.0848669192 3.0848669192 3.0848669192 3.0848669192 3.0848669192 3.0723115588 
3.0597561985 3.0472008382 3.0472008382 3.0597561985 3.0723115588 3.0848669192 3.0974222795 3.1099776398 3.1099776398 