# vtk DataFile Version 4.2
vtk output
ASCII
DATASET UNSTRUCTURED_GRID
POINTS 1740 double
2144.07 -94.44003 0 2911 0 0 16.54298 -37.82236 0 
5.09149 -21.30132 0 1.27433 -10.75385 0 0 0 0 
2.54575 15.14293 0 6.36291 23.76126 0 14.00014 34.89063 0 
30.50239 50.70793 0 33.39435 -52.93479 0 2050.91 -103.7862 0 
60.1465 -69.72165 0 88.83633 -83.2817 0 118.7656 -94.71113 0 
153.4168 -105.7022 0 199.5806 -117.771 0 261.4466 -130.7139 0 
345.846 -144.1892 0 460.3522 -157.0592 0 608.4185 -167.1903 0 
783.2313 -172.4016 0 941.0559 -172.4533 0 1063.409 -170.1096 0 
1164.153 -166.8746 0 1263.449 -162.682 0 1375.468 -156.8941 0 
1513.293 -148.414 0 1665.281 -137.5317 0 1791.864 -127.3721 0 
2195.451 -89.09491 0 2273.924 -80.67077 0 2383.731 -68.3513 0 
2517.64 -52.47337 0 2649.227 -35.9232 0 2740.773 -23.82991 0 
2804.387 -15.13419 0 2848.802 -8.916218 0 2881.944 -4.196067 0 
56.61447 67.79801 0 84.09687 81.25172 0 112.4783 92.48395 0 
142.1748 102.3504 0 174.8563 111.6168 0 213.124 120.8806 0 
260.3759 130.5151 0 324.6539 141.1779 0 418.1422 152.9178 0 
535.6656 162.9871 0 690.9154 170.4255 0 902.6513 172.7852 0 
1100.32 169.0517 0 1270.99 162.3262 0 1462.794 151.6837 0 
1631.287 140.0952 0 1747.993 131 0 1922.788 115.9027 0 
2069.56 101.951 0 2128.804 96.0021 0 2297.147 78.11721 0 
2414.379 64.80104 0 2554.023 47.99319 0 2673.693 32.73885 0 
2757.97 21.50315 0 2814.297 13.7575 0 2852.02 8.460961 0 
2882.272 4.148909 0 1791.052 127.4402 0 1366.894 157.3738 0 
1444.38 -152.8302 0 1547.039 146.1296 0 1589.287 -143.1614 0 
1878.731 119.8675 0 1997.072 108.9828 0 1185.654 166.0472 0 
1882.536 -119.5292 0 1971.323 -111.4145 0 1684.777 136.0292 0 
2099.317 -98.9855 0 2234.809 84.9091 0 2181.695 90.53914 0 
1728.573 -132.5703 0 1718.815 133.3509 0 1834.825 123.7132 0 
1960.305 112.4444 0 2033.69 105.4648 0 2099.184 98.99892 0 
2214.291 -88.0238157 396.8421 2955.512 2.4006293174 396.8421 158.0786 -32.385790052 396.8421 
147.0109 -16.421691825 396.8421 143.3217 -6.2262013387 396.8421 142.09 4.1716323013 396.8421 
144.5505 18.818182128 396.8421 148.2398 27.156749342 396.8421 155.621 37.928052342 396.8421 
171.5701 53.242970781 396.8421 174.3652 -46.982769685 396.8421 2124.254 -96.957802365 396.8421 
200.2206 -63.190583796 396.8421 227.9488 -76.278124845 396.8421 256.8748 -87.306306754 396.8421 
290.3647 -97.909259158 396.8421 334.981 -109.54972524 396.8421 394.7733 -122.0318117 396.8421 
476.3434 -135.02770681 396.8421 587.0114 -147.44531762 396.8421 730.1145 -157.2362481 396.8421 
899.0676 -162.30679887 396.8421 1051.602 -162.41570881 396.8421 1169.853 -160.21256297 396.8421 
1267.221 -157.14648719 396.8421 1363.188 -153.16162137 396.8421 1471.452 -147.65140407 396.8421 
1604.657 -139.56895074 396.8421 1751.55 -129.18761812 396.8421 1873.891 -119.48944667 396.8421 
2263.949 -82.913107076 396.8421 2339.792 -74.856484919 396.8421 2445.918 -63.070423875 396.8421 
2575.338 -47.87313568 396.8421 2702.515 -32.024625904 396.8421 2790.992 -20.439276217 396.8421 
2852.473 -12.106419606 396.8421 2895.4 -6.146780863 396.8421 2927.431 -1.6221048013 396.8421 
196.807 69.799649592 396.8421 223.3682 82.840812564 396.8421 250.7983 93.734037993 396.8421 
279.4994 103.30698033 396.8421 311.0855 112.3017523 396.8421 348.0705 121.29812502 396.8421 
393.7383 130.65948274 396.8421 455.8617 141.02661197 396.8421 546.2162 152.45077029 396.8421 
659.8003 162.26062082 396.8421 809.846 169.52006714 396.8421 1014.485 171.83693274 396.8421 
1205.528 168.20188807 396.8421 1370.477 161.63340523 396.8421 1555.851 151.22263852 396.8421 
1718.696 139.87259796 396.8421 1831.49 130.95784529 396.8421 2000.426 116.15047335 396.8421 
2142.278 102.45932658 396.8421 2199.537 96.620171484 396.8421 2362.236 79.062281147 396.8421 
2475.539 65.988619694 396.8421 2610.501 49.488229338 396.8421 2726.16 34.516175034 396.8421 
2807.613 23.491335998 396.8421 2862.05 15.892800793 396.8421 2898.509 10.697767523 396.8421 
2927.749 6.468938435 396.8421 1873.106 127.46737492 396.8421 1463.165 156.79071746 396.8421 
1538.054 -143.77914457 396.8421 1637.272 145.78423001 396.8421 1678.104 -134.55918192 396.8421 
1957.846 120.04009506 396.8421 2072.22 109.36056398 396.8421 1288 165.26903818 396.8421 
1961.524 -111.99960085 396.8421 2047.334 -104.24749676 396.8421 1770.393 135.88796625 396.8421 
2171.038 -92.369250339 396.8421 2301.989 85.730335642 396.8421 2250.655 91.257459759 396.8421 
1812.721 -124.45215832 396.8421 1803.29 133.26253869 396.8421 1915.411 123.81219791 396.8421 
2036.686 112.75723032 396.8421 2107.61 105.90802198 396.8421 2170.909 99.561819197 396.8421 
2284.511 -82.339103067 793.6842 3000.027 4.265180661 793.6842 299.6143 -27.829634278 793.6842 
288.9304 -12.425664712 793.6842 285.3691 -2.5854827108 793.6842 284.1801 7.4519124631 793.6842 
286.5551 21.594059264 793.6842 290.1167 29.647308448 793.6842 297.2417 40.052144531 793.6842 
312.6379 54.850370738 793.6842 315.336 -41.910354398 793.6842 2197.597 -90.88095101 793.6842 
340.2947 -57.540622108 793.6842 367.0612 -70.158638317 793.6842 394.9839 -80.789224152 793.6842 
427.3123 -91.008470288 793.6842 470.3812 -102.22652562 793.6842 528.0998 -114.25513714 793.6842 
606.8411 -126.78010559 793.6842 713.6708 -138.75368285 793.6842 851.8104 -148.20940721 793.6842 
1014.904 -153.13749394 793.6842 1162.147 -153.29598309 793.6842 1276.298 -151.22380805 793.6842 
1370.288 -148.31666889 793.6842 1462.927 -144.52792369 793.6842 1567.436 -139.28079687 793.6842 
1696.021 -131.5753415 793.6842 1837.82 -121.66966356 793.6842 1955.917 -112.40995246 793.6842 
2332.447 -77.45145444 793.6842 2405.659 -69.744570452 793.6842 2508.105 -58.466207488 793.6842 
2633.037 -43.916754918 793.6842 2755.801 -28.735904856 793.6842 2841.209 -17.633726145 793.6842 
2900.561 -9.6459233938 793.6842 2941.997 -3.9318120232 793.6842 2972.917 0.40711500042 793.6842 
336.9995 70.854549456 793.6842 362.6396 83.465295258 793.6842 389.1182 94.002371599 793.6842 
416.8239 103.26504278 793.6842 447.3145 111.97070504 793.6842 483.0167 120.68028179 793.6842 
527.1009 129.74598913 793.6842 587.0697 139.78928363 793.6842 674.2905 150.8614785 793.6842 
783.9349 160.37373896 793.6842 928.7766 167.41559639 793.6842 1126.317 169.65853735 793.6842 
1310.735 166.11457536 793.6842 1469.963 159.71291736 793.6842 1648.908 149.56193853 793.6842 
1806.105 138.48966745 793.6842 1914.987 129.78974717 793.6842 2078.064 115.33453212 793.6842 
2214.996 101.96532111 793.6842 2270.269 96.262790268 793.6842 2427.326 79.114473962 793.6842 
2536.699 66.345650394 793.6842 2666.98 50.231392812 793.6842 2778.628 35.612131239 793.6842 
2857.255 24.849081812 793.6842 2909.806 17.432162772 793.6842 2945.001 12.361917988 793.6842 
2973.224 8.2350625812 793.6842 1955.16 126.38268796 793.6842 1559.437 154.99174282 793.6842 
1631.729 -135.5901111 793.6842 1727.505 144.25725725 793.6842 1766.921 -126.79607352 793.6842 
2036.96 119.132045 793.6842 2147.368 108.70456194 793.6842 1390.347 163.25643182 793.6842 
2040.511 -105.25565496 793.6842 2123.346 -97.848482234 793.6842 1856.009 134.60138086 793.6842 
2242.759 -86.494154761 793.6842 2369.167 85.627092812 793.6842 2319.614 91.025284218 793.6842 
1896.869 -117.14896175 793.6842 1887.765 132.0391648 793.6842 1995.998 122.81463134 793.6842 
2113.066 112.02136576 793.6842 2181.531 105.33314625 793.6842 2242.634 99.135642777 793.6842 
2354.732 -77.271679053 1190.526 3044.539 5.620444859 1190.526 441.15 -23.914316621 1190.526 
430.8497 -9.0714412409 1190.526 427.4164 0.41180057558 1190.526 426.2701 10.086305179 1190.526 
428.5601 23.719181977 1190.526 431.9934 31.483555847 1190.526 438.8627 41.516440029 1190.526 
453.7057 55.788229222 1190.526 456.3069 -37.479689633 1190.526 2270.94 -85.432247452 1190.526 
480.3688 -52.535298496 1190.526 506.1737 -64.687612539 1190.526 533.0934 -74.924868006 1190.526 
564.26 -84.765393999 1190.526 605.7815 -95.567500181 1190.526 661.4265 -107.1506388 1190.526 
737.3385 -119.21454281 1190.526 840.33 -130.75466306 1190.526 973.5064 -139.88468362 1190.526 
1130.74 -144.67599474 1190.526 1272.693 -144.88422987 1190.526 1382.742 -142.94056371 1190.526 
1473.356 -140.1888934 1190.526 1562.666 -136.59152232 1190.526 1663.42 -131.60061894 1190.526 
1787.385 -124.26236544 1190.526 1924.09 -114.81954109 1190.526 2037.944 -105.98641417 1190.526 
2400.946 -72.600863485 1190.526 2471.527 -65.234038043 1190.526 2570.292 -54.449213813 1190.526 
2690.735 -40.529464226 1190.526 2809.091 -25.997509036 1190.526 2891.43 -15.364727593 1190.526 
2948.647 -7.712056931 1190.526 2988.597 -2.2363854042 1190.526 3018.403 1.9222201698 1190.526 
477.1918 71.22660354 1190.526 501.9109 83.394151337 1190.526 527.4382 93.56270101 1190.526 
554.1485 102.5027219 1190.526 583.5435 110.90621966 1190.526 617.963 119.31461041 1190.526 
660.4633 128.06769099 1190.526 718.2775 137.76554585 1190.526 802.3645 148.45732003 1190.526 
908.0698 157.64070975 1190.526 1047.707 164.43126808 1190.526 1238.151 166.56846273 1190.526 
1415.942 163.1003589 1190.526 1569.449 156.86336991 1190.526 1741.965 146.98194102 1190.526 
1893.514 136.2060364 1190.526 1998.484 127.73915597 1190.526 2155.702 113.67113515 1190.526 
2287.714 100.66003607 1190.526 2341.001 95.11040504 1190.526 2492.415 78.422768673 1190.526 
2597.858 65.998345917 1190.526 2723.46 50.32099142 1190.526 2831.095 36.100858561 1190.526 
2906.899 25.633567882 1190.526 2957.56 18.421524068 1190.526 2991.49 13.491832724 1190.526 
3018.699 9.4796984135 1190.526 2037.214 124.42339055 1190.526 1655.708 152.26708052 1190.526 
1725.403 -128.0867769 1190.526 1817.738 141.81912836 1190.526 1855.738 -119.70742776 1190.526 
2116.075 117.36695503 1190.526 2222.516 107.21868645 1190.526 1492.694 160.31462207 1190.526 
2119.498 -99.158428176 1190.526 2199.357 -92.086557957 1190.526 1941.625 132.42180991 1190.526 
2314.479 -81.24162784 1190.526 2436.346 84.760240525 1190.526 2388.573 90.013463263 1190.526 
1981.017 -110.50764624 1190.526 1972.24 129.92824683 1190.526 2076.584 120.9508426 1190.526 
[...]
POINT_DATA 1740
FIELD FieldData 1
Pressure 1 1740 double
3.1130209938 3.02717537 3.0096388353 2.9870079405 2.9798416644 2.9598748616 2.9714956797 2.9881759299 3.0189440255 
3.0327327126 3.0103099484 3.1151493989 3.0336962199 3.0481326421 3.0657578568 3.0632385501 3.0812268229 3.0865405808 
3.1070039717 3.1139490724 3.1313388039 3.1405414977 3.1455272171 3.1520745825 3.1511724578 3.1483435806 3.1467685557 
3.1400050444 3.1295441132 3.1224064552 3.1109672553 3.1074188817 3.1021905803 3.0953623403 3.0854146566 3.0758559747 
3.0661653141 3.0576198549 3.0497740025 3.0687430852 3.0804151736 3.0942231874 3.1073469621 3.1126895747 3.1211705075 
3.1280778091 3.1358560014 3.1506600765 3.1615812369 3.1795431905 3.1905952482 3.1954979995 3.202783688 3.2110302756 
3.2078734492 3.2067086349 3.1619781528 3.1593878108 3.156653103 3.0939229125 3.0821660238 3.0717275157 3.0615102557 
3.0512948878 3.0401875805 3.0329134814 3.0333606666 3.1905798698 3.2076283841 3.1444636393 3.2092951255 3.1353378067 
3.1725684159 3.1567840789 3.2007627794 3.1193541677 3.1170169292 3.2055256064 3.1143452431 3.090936601 3.1190329277 
3.1251335953 3.2066882982 3.1792414398 3.1599293821 3.156142977 3.1616819999 3.110945032 3.0244745117 3.0289150227 
3.0013504853 3.0081658134 2.9868621403 2.9947502298 3.0063332427 3.0347444125 3.0536833669 3.0342837767 3.1129199758 
3.0550837901 3.0675935249 3.0817019974 3.0869849408 3.1004904321 3.1122685672 3.1233591377 3.1313384794 3.1393448144 
3.146564768 3.1512705407 3.1552523627 3.1545325166 3.1508802844 3.1461357039 3.1353433049 3.1242056353 3.1180338853 
3.1087107376 3.1049022571 3.0998185566 3.0922827472 3.0823039776 3.0723542207 3.0624952445 3.0546543105 3.0404135112 
3.0867011993 3.107705991 3.1202954984 3.1290357478 3.1378923943 3.1430424418 3.1478259006 3.1582553395 3.1691827345 
3.176971869 3.1868632484 3.1949787823 3.1992981193 3.2074048099 3.2124812635 3.2034028396 3.1946365701 3.1537798305 
3.1567034529 3.1379158578 3.0783820181 3.0736915593 3.0637849651 3.0534137314 3.0435945782 3.0338687818 3.029290075 
3.0290863564 3.1732723169 3.210443 3.1434787039 3.205989723 3.1304322608 3.1610200267 3.1520343781 3.2031709522 
3.1154428804 3.1144444116 3.2011039882 3.1117890302 3.0759317135 3.091479602 3.1208194112 3.2005191405 3.1658837944 
3.1539107559 3.1535013531 3.1586010891 3.1101008786 3.0203194315 3.0298758356 3.0014709876 3.0045599552 2.9859894983 
2.998020004 3.011193854 3.0404769307 3.061991354 3.0429836421 3.11278652 3.0581981186 3.0772835997 3.0952614539 
3.1039560434 3.1145740188 3.1237839423 3.1367540775 3.1448190494 3.1513490674 3.1559750169 3.1583390472 3.1602327559 
3.1581035734 3.1523361541 3.1453620444 3.1309504758 3.120813378 3.1164960059 3.108070249 3.1035058285 3.0976287028 
3.0905343038 3.0797026913 3.0694383503 3.0600516415 3.0526302252 3.040433291 3.0947301753 3.1170799807 3.1355943673 
3.1448505189 3.154681779 3.1633265173 3.1724364093 3.1772672824 3.1859530414 3.1942982026 3.1995532347 3.2070063317 
3.208284186 3.2150102895 3.2180902922 3.2048568318 3.1886385141 3.1492149631 3.1531661538 3.095598539 3.0727257522 
3.0659606307 3.0570634854 3.0470063442 3.037408997 3.0282952848 3.0240548612 3.0233976191 3.1643892203 3.2172797253 
3.1401427022 3.208760091 3.1253319415 3.15492357 3.1487828924 3.2112683531 3.1137851916 3.1139454823 3.2014003497 
3.1118421144 3.0725245496 3.0752417824 3.1186355553 3.1989937209 3.158152243 3.1500565377 3.1503950771 3.1495269677 
3.1111544366 3.018472709 3.0299600004 3.001596563 3.0046376944 2.9842592053 2.9940020066 3.0079780246 3.0416477914 
3.06327945 3.0419752291 3.1134220536 3.0621167164 3.0796862832 3.0975761106 3.1082187302 3.1190349407 3.1290367771 
3.1420845535 3.1502313584 3.1579492184 3.1612118571 3.1642023965 3.1645914454 3.1606625765 3.1526203452 3.1432510661 
3.1267985496 3.1192811367 3.1165447028 3.1080681099 3.103035335 3.0975859369 3.0905507153 3.0793813934 3.0688148092 
3.0594761753 3.0521194484 3.0400807874 3.0993625127 3.1229580451 3.1385793939 3.1501577483 3.1592658051 3.1695984668 
3.1827412655 3.1923343184 3.2004750709 3.208165422 3.2136849235 3.2193690824 3.2193628291 3.224386995 3.225976445 
3.2081972667 3.188379413 3.1472897774 3.147384083 3.0699333756 3.0683112884 3.0625584078 3.0535614293 3.0432199375 
3.0334959281 3.0244151729 3.0196902021 3.0190410723 3.1625492713 3.226651822 3.1364608021 3.2142189797 3.1213693418 
3.1523376264 3.1467907774 3.2216035621 3.1147926402 3.1147633879 3.204676032 3.1121085745 3.0722790629 3.0702357007 
3.1179722994 3.2013044476 3.1551372469 3.148727198 3.1483976848 3.1115644235 3.1114050899 3.0177293205 3.0311962818 
3.0012961269 3.0091140754 2.9881361896 2.9957369419 3.0090006724 3.0434930694 3.0645679241 3.0410689393 3.1137305866 
3.0629066895 3.080432437 3.0970996865 3.1085482449 3.120096603 3.130997935 3.1442820004 3.1535351252 3.1617400892 
3.1647150876 3.1669445396 3.1669784394 3.1613994532 3.1510170296 3.1392280734 3.1232043499 3.1182086505 3.116369007 
3.1082042267 3.1030985477 3.0978266233 3.0907921667 3.0798108621 3.0691774136 3.0599302246 3.0524355569 3.0406466209 
3.1011855933 3.1248651969 3.1400419381 3.152971566 3.1616687068 3.1734394287 3.1852515994 3.193549176 3.2046493616 
3.215259851 3.2238612757 3.2289542222 3.229685502 3.2334210183 3.2360672398 3.2138672622 3.1901350654 3.1455424209 
3.1227492555 3.0610627956 3.0653615326 3.0598183974 3.0518461984 3.0413351223 3.0314755204 3.0221451815 3.0173039438 
3.0160756979 3.161952797 3.2359330764 3.1315083088 3.2224533455 3.1185824022 3.1503605678 3.1458609473 3.2315952482 
3.1159952934 3.115019197 3.2084083254 3.1122820379 3.0704501327 3.068180755 3.1177054851 3.2038972928 3.1528538777 
3.1475213758 3.1470070374 3.0615048497 3.1104748466 3.0176366384 3.0315884133 3.0021835037 3.010515697 2.9887936362 
2.9968935431 3.0103732313 3.0443017379 3.0664140639 3.0411743807 3.1136281875 3.0632655976 3.0810913494 3.0973732261 
3.1091803603 3.1209959448 3.1323950986 3.1460215556 3.15549999 3.1645334028 3.1675913824 3.1695422837 3.1684658514 
3.1609611488 3.1478942072 3.1342693005 3.1207582279 3.11782694 3.1169746572 3.1077337584 3.102791797 3.0979342402 
3.0910441113 3.0801362762 3.0695702618 3.0603550701 3.0528170613 3.0412056668 3.1029425249 3.1269768747 3.1420532488 
3.1552957885 3.1642975863 3.1764988298 3.1886216972 3.1980474941 3.2101081457 3.2205704908 3.2311234887 3.2362956465 
3.2388745462 3.2424161163 3.2457313081 3.2229189401 3.1942030949 3.142445929 3.080982201 3.0561079862 3.0632904706 
3.0574045106 3.050622953 3.0403949613 3.0307573721 3.0210425949 3.0164397773 3.0144364645 3.1616820799 3.2451596611 
3.1267182011 3.2343781529 3.1171799712 3.1470129788 3.1435088004 3.2409785529 3.1162634556 3.1151489344 3.2149064121 
3.1119378178 3.0658944019 3.0620162293 3.1180537786 3.2093758181 3.149647065 3.1447177029 3.1437741944 3.0538297291 
3.1101198849 3.0174931878 3.0315973862 3.0020131299 3.0099606166 2.9885489087 2.9969156986 3.0106919138 3.044634188 
3.0671480556 3.041093444 3.1134211807 3.0632985947 3.0813799018 3.0978210869 3.1098659519 3.1216620857 3.1334649251 
3.1473945716 3.158061951 3.1659189808 3.1692876919 3.1712853618 3.1692941696 3.1596590141 3.1441674883 3.1293389192 
3.1190939152 3.1177653437 3.1173516935 3.1075660723 3.102628408 3.0978957193 3.09128588 3.0804144894 3.0699476141 
3.0606992237 3.0531945382 3.041473362 3.1039460111 3.1283013277 3.1436320752 3.1572372321 3.166229704 3.1786230916 
3.1909699115 3.2005493772 3.2134181584 3.2249605889 3.2364385424 3.2433116349 3.2467029741 3.2504594026 3.255194351 
3.2370135846 3.204006162 3.1371734634 3.0520743559 3.0543000185 3.0591454121 3.0546096272 3.0485406752 3.0388891813 
3.0297915173 3.0198557277 3.0159109114 3.0133197338 3.1634852093 3.253574677 3.1225906373 3.2521850227 3.1165091337 
3.1421822429 3.1394093447 3.2489146426 3.1162023384 3.1147421629 3.2276559182 3.1115369657 3.0618549955 3.058969142 
3.1186813037 3.2208477687 3.1465290581 3.140104951 3.1355054042 3.051844288 3.1097652796 3.0169244428 3.0319678592 
3.0022241248 3.0101763913 2.9892240267 2.9973628539 3.0109896261 3.0451130756 3.0677465255 3.0411647401 3.1132437349 
3.0634200772 3.0815887612 3.098201775 3.1104145591 3.1222129687 3.1343045886 3.1483417739 3.1594861388 3.1676013917 
3.1712174752 3.1726087799 3.1697164831 3.1577765567 3.1403574168 3.1250518252 3.1185746428 3.1186579201 3.1177857095 
3.1073813702 3.1026581469 3.0980513415 3.0915600535 3.0806467933 3.0702215806 3.0609590792 3.0535148786 3.041777628 
3.1047813849 3.1294760654 3.1448785987 3.1587834989 3.1680248746 3.1803826356 3.1929532444 3.2027130177 3.2160889565 
3.2284320622 3.239691006 3.2480908475 3.2529832216 3.257051722 3.2621457321 3.255927561 3.2249724307 3.1297946802 
3.0483303167 3.0491616727 3.0545516276 3.0509790457 3.0452013943 3.0361423881 3.0276089761 3.0178306106 3.0145909693 
3.0117086556 3.1724537139 3.2595272277 3.1195982487 3.2676990869 3.1166447021 3.1355311772 3.1340583147 3.2553629805 
3.1161295399 3.1144518892 3.2495296014 3.1112796361 3.0563445393 3.0571291252 3.11942772 3.2427584698 3.1446095682 
3.1334385749 3.1117828843 3.0587868411 3.1095873375 3.0157929749 3.0323184798 3.0025389373 3.0104716702 2.9898387468 
2.9980308616 3.0115388602 3.0456682765 3.0684358344 3.0413864001 3.1129935421 3.0635853332 3.0819366675 3.0986186257 
3.1108326149 3.1226595674 3.1349962893 3.1493080494 3.1607297599 3.1688728669 3.1727405041 3.173981123 3.169938746 
3.1557039552 3.1370046083 3.1217451563 3.1176192783 3.119263115 3.1184697264 3.1072608313 3.1027436775 3.0982874991 
3.0918127823 3.0808579075 3.0703917727 3.0611081537 3.0537212591 3.0421220611 3.1056226366 3.1305938793 3.1459592444 
3.1600824366 3.169656106 3.1820317028 3.1948719665 3.2047828029 3.2184780296 3.23130653 3.243243518 3.2518678327 
3.2575155439 3.2629840211 3.2697335439 3.2785134517 3.2622828205 3.1203941243 3.0496500846 3.0468863471 3.0504900406 
3.046883535 3.0412116984 3.0325997011 3.0244006545 3.0150319513 3.012281473 3.0091695121 3.1966991127 3.2635044581 
3.1177088187 3.2780964547 3.1181590434 3.1286402655 3.1271540761 3.2603989736 3.1164248088 3.1140674393 3.2805949961 
3.1111362465 3.0514187041 3.0512169773 3.1200830528 3.2762361036 3.1499963936 3.1246233514 3.0798852617 3.0589167189 
3.1095710152 3.0142791015 3.0324802647 3.0027188611 3.0106596238 2.9900530231 2.998423613 3.011948795 3.0459804771 
3.0689510371 3.0415007217 3.1129956419 3.0636361227 3.0821253746 3.0987659335 3.1109504069 3.1229412724 3.1354093974 
3.1500154556 3.1616191669 3.1699639527 3.1738886946 3.1749728736 3.1698887736 3.1535929499 3.1343390246 3.1194313939 
3.1170293107 3.1199827211 3.1186179237 3.1071755594 3.1028336905 3.0985601642 3.0920114061 3.0810262793 3.0704316255 
3.0611521572 3.053774503 3.0424953571 3.106279287 3.1314780764 3.1468226867 3.1611202787 3.1708619873 3.1833914179 
3.196559669 3.2067378819 3.2207158925 3.2339177046 3.2456619489 3.255620009 3.2611793191 3.268459928 3.269929345 
3.283877518 3.3159709663 3.1105555427 3.0463594017 3.0432165733 3.0456149658 3.0427846826 3.037069156 3.0287830362 
3.0207373189 3.0117489829 3.0092721562 3.0058846298 3.2361986473 3.2684952995 3.1167537334 3.2771205642 3.119014587 
3.123750508 3.1191108174 3.2648680155 3.1166524914 3.1139582808 3.3018045066 3.1110194149 3.046964495 3.0457832049 
3.1201828406 3.3143759225 3.1756169394 3.1149314771 3.0521958319 3.0543658585 3.1095127379 3.0124813521 3.0325158024 
3.0027908628 3.0106455424 2.9899949221 2.9986111907 3.0121246728 3.046085671 3.0692255064 3.0414361773 3.1129624491 
3.0635512875 3.0821510865 3.0986719212 3.1108318659 3.1230065775 3.1356115748 3.1504054431 3.1621931035 3.1706613018 
3.1746510998 3.1756087192 3.1695104815 3.1515188328 3.132265004 3.1178394365 3.1181983656 3.1202603566 3.1189690548 
3.1070400787 3.1028111636 3.0986860422 3.0920525988 3.0810579746 3.0703735834 3.0611123876 3.0536877944 3.04285541 
3.1067321161 3.1320873892 3.1474669649 3.1619679813 3.1717241128 3.1844628916 3.1978782406 3.2083663388 3.2226778414 
3.2361455587 3.2481071106 3.2576381158 3.2645834468 3.2725528169 3.2727431692 3.2827509107 3.3540342954 3.104282032 
3.0409451324 3.0364828986 3.03996263 3.0381893483 3.0324180422 3.0246089332 3.016761128 3.0080454482 3.0058439858 
3.002160788 3.2986672627 3.271840059 3.1163580952 3.2791594954 3.1190444264 3.1301528089 3.1096969471 3.2682163999 
3.1167018288 3.1137465785 3.3124477292 3.1109713171 3.0391403482 3.0401382909 3.1201704501 3.3291606143 3.2332916932 
3.1057448511 3.0272707744 3.0452977179 3.1094532911 3.0105092309 3.0325440629 3.0029128888 3.0106272579 2.9899063754 
2.9988117302 3.0122760594 3.0461604727 3.0694125292 3.0413198169 3.1130029946 3.0634539458 3.0821308036 3.0985370788 
3.1106935994 3.1230329884 3.1357746377 3.150746371 3.1626634593 3.1712248627 3.17526061 3.176033084 3.1691181161 
3.1496721336 3.1307214199 3.1167383004 3.118010894 3.1207625932 3.1192458078 3.1069363724 3.1027587243 3.0986426173 
3.0919118188 3.0810214982 3.0702932832 3.061020198 3.0534673712 3.0431888337 3.1071109712 3.1325899857 3.1480511923 
3.1627585957 3.1724479458 3.1853835889 3.1989448894 3.2096785121 3.2243445293 3.2379823124 3.2502989463 3.2597191407 
3.2666590438 3.2751320905 3.2763043318 3.2819861826 3.3409198669 3.1101903073 3.0387844097 3.0266527202 3.034032712 
3.0328674782 3.0270311246 3.0198893495 3.0123922634 3.00394882 3.0021718609 2.9980491486 3.3674238184 3.2755080547 
3.1160223379 3.2737263332 3.119540835 3.1671542173 3.0974111599 3.2711474921 3.1166381675 3.1135819345 3.2966673671 
3.1109481073 3.0328149678 3.0339244134 3.1204853765 3.3287103936 3.319377076 3.0999992033 3.0015779717 3.0364887372 
3.1094576275 3.0083234507 3.0326452017 3.0031163289 3.010741477 2.9899502454 2.9991431128 3.0125007667 3.0463190889 
3.0696664694 3.041244395 3.113113991 3.0634752465 3.0821926454 3.0985407901 3.1107273095 3.1232279031 3.1360824766 
3.1511787875 3.1631768198 3.1717727004 3.1759356517 3.176477625 3.1689557136 3.1483941816 3.129721798 3.1159022772 
3.1184002644 3.1210727996 3.119368953 3.1069332993 3.1027251826 3.0985716917 3.0916933393 3.0808883899 3.0701183167 
3.0608625994 3.0531262062 3.0434630955 3.1075618298 3.1331461639 3.1486533229 3.1635999085 3.1732029146 3.1863037166 
3.199945293 3.2108268563 3.2258345988 3.2395524372 3.2522864142 3.2614354187 3.2682986589 3.2774144175 3.28098564 
3.2805421948 3.335912882 3.1414202233 3.0414039501 3.0166564905 3.028051717 3.0268774686 3.0213958693 3.0148549351 
3.0077156673 2.9996623478 2.9985142456 2.9933327843 3.3853060188 3.279408795 3.1156570742 3.2774065491 3.1196638211 
3.2586606362 3.0801281098 3.2727108208 3.1165727605 3.1135132095 3.2870612621 3.1110323976 3.0270390506 3.0272002767 
3.1203896568 3.3160530465 3.3867970197 3.094823422 2.9816053027 3.0312057542 3.1095512574 3.0061811377 3.0328814027 
3.003515252 3.0110443058 2.9901181414 2.9996325174 3.0128547266 3.0467118769 3.0701176328 3.041343032 3.1131659917 
3.0637316999 3.0824411041 3.0988300167 3.1111103374 3.123675522 3.1365166483 3.1516753203 3.1637186871 3.1724968978 
3.176787505 3.1771818125 3.1693485494 3.147711417 3.1290788811 3.1151817918 3.1181277083 3.1212045232 3.11910005 
3.1069300277 3.1026490823 3.0985050269 3.0914646803 3.080726124 3.0698652571 3.0606473813 3.0527369367 3.0436617804 
3.1081920542 3.1338737514 3.1493427959 3.1645129516 3.1740526393 3.1872431126 3.2009653972 3.211908983 3.2271587571 
3.2408974839 3.2537115033 3.2629816061 3.269742724 3.2789134697 3.2833606493 3.2807376827 3.3351202558 3.2182433956 
3.0300474812 3.0086779985 3.021599324 3.0213383616 3.0165586497 3.0102814615 3.0033342891 2.9955178959 2.9949346784 
2.9882684852 3.3764192377 3.2819180698 3.1153644513 3.2825351664 3.1194185035 3.3958092216 3.0541546593 3.2738803573 
3.1163062375 3.1133052399 3.2842996247 3.1111227332 3.0205516565 3.0200010575 3.1201926104 3.3036762766 3.4529470065 
3.0882255815 2.9711246339 3.0135858848 3.1095922804 3.0044564076 3.0332210559 3.0040454103 3.0116582659 2.9904088945 
3.0001971266 3.0133143207 3.0473057053 3.0706938471 3.0415518616 3.1130789554 3.0641537148 3.0826695178 3.0992911948 
3.1115722758 3.1241148658 3.136797055 3.1521819824 3.1640377858 3.1732694701 3.1776686196 3.1782267898 3.1705455309 
3.1479190491 3.1287104009 3.1144159984 3.1177422072 3.1213354498 3.1190729967 3.1068457737 3.1025800129 3.0984450414 
3.0911458115 3.0804588185 3.0694594181 3.0603210291 3.0523082593 3.0436989343 3.1086428986 3.1345234075 3.1499671321 
3.1651815167 3.1747255618 3.1880668648 3.2018412516 3.2128170893 3.2278697427 3.2418236373 3.2543403525 3.2641720526 
3.2710444056 3.2810534225 3.2836118937 3.2804038722 3.3358697145 3.3098925663 3.0135908242 3.004020548 3.0160375154 
3.0163704203 3.0119411999 3.0061841824 2.9995294566 2.9920542833 2.9917196696 2.9841738993 3.3752145195 3.2831837075 
3.1147032759 3.2835553159 3.1196510525 3.5467662955 3.0167739045 3.2747713028 3.1160759613 3.1131137797 3.2813919014 
3.1111492748 3.0150455423 3.0146546349 3.1203766188 3.3050372723 3.4753694975 3.0779659929 2.9819454041 2.9936545417 
3.1094316109 3.0036678303 3.0322509156 3.003721697 3.0119411105 2.98989231 3.0003251634 3.0134121193 3.0465498468 
3.0706300866 3.0414626228 3.1131762627 3.0636202402 3.0821563668 3.0992237259 3.1112620145 3.1242218544 3.1363916873 
3.1524334555 3.1637567541 3.1741969523 3.1789487141 3.1797365065 3.1725415751 3.1486825942 3.1283913778 3.11384897 
3.1178782865 3.1216689691 3.1190845552 3.1066548725 3.1022641697 3.0982070624 3.090594512 3.0799134624 3.0688150888 
3.059791456 3.0517667797 3.04320138 3.1085068132 3.1345556634 3.1502427971 3.1654174749 3.1750183525 3.188511638 
3.2022204986 3.2132272075 3.2281303392 3.2425848638 3.2553107317 3.2650572798 3.2725706614 3.2828547798 3.2847254192 
3.2843401213 3.3457750558 3.2782242918 3.009003539 3.0073707242 3.0146834655 3.013689008 3.0105263081 3.0046579228 
2.9978035316 2.9906350132 2.9900429681 2.9823280254 3.3765254055 3.2860079311 3.1148834368 3.2865142839 3.1199495649 
3.5793672881 2.9867234578 3.2761972478 3.1160751786 3.1131146111 3.2840302445 3.1110741179 3.0141619738 3.0155751024 
3.1203424606 3.3123213638 3.4941882536 3.0627380771 3.0022647667 3.003728503 3.1089758632 3.0047307026 3.0305274092 
3.0018851948 3.0082809424 2.9877039801 2.9993791361 3.0128623139 3.0472897198 3.0705203134 3.0400733665 3.113131942 
3.0634479944 3.0819830286 3.0990735434 3.1104124315 3.1240253136 3.1355459394 3.1539006572 3.1654935985 3.1769005957 
3.1835177292 3.1832882014 3.1757020095 3.1491748181 3.1281743063 3.1143819284 3.117592771 3.1221603137 3.1191126108 
3.1068346732 3.1020867393 3.0976137376 3.0897565179 3.0789839919 3.0677747847 3.0587807364 3.05071566 3.0411483873 
3.1087154861 3.1342179355 3.1510125478 3.1664087172 3.1759469236 3.1890418905 3.2026890505 3.2142380699 3.2296997043 
3.2446925982 3.2579212767 3.2693738568 3.2754408947 3.2862256501 3.2854995193 3.290366409 3.3467850234 3.1463341095 
2.9998001465 3.0176068579 3.0206614944 3.0205747069 3.0163762225 3.0085471202 3.0008386409 2.9935084982 2.9921740209 
2.984193422 3.3845694854 3.287478225 3.1150193492 3.2891715064 3.121039727 3.3737781337 2.984668136 3.2792683544 
3.1160631027 3.1128935985 3.2909987365 3.111213081 3.0187987895 3.0197781156 3.120523095 3.3117628066 3.391109016 
3.0427105119 3.0189105076 3.0236361083 3.1087651997 3.0097470682 3.0324023641 3.0049720882 3.0099961481 2.9895699722 
3.0032393047 3.0164644237 3.0539526616 3.0732958246 3.0445601127 3.1153244122 3.0621567994 3.0838788179 3.101027819 
3.114011946 3.1278357881 3.1388952339 3.1598886273 3.1773923262 3.1851932121 3.1908938861 3.1883194374 3.1757537737 
3.1462137266 3.1267613603 3.1172310313 3.1194899876 3.1210293364 3.1183876699 3.1057074934 3.1018418608 3.0964636679 
3.0869508531 3.0771184223 3.0650476214 3.0564818057 3.0483136108 3.0380861045 3.1080795537 3.1353646739 3.1556043433 
3.1706936845 3.1793739174 3.1964355446 3.2068926245 3.216862484 3.2354568444 3.2489963382 3.2644250353 3.2724444356 